# Probe 0 (0.16 0 0)
# Probe 1 (0.159829 6.2e-05 0)
# Probe 2 (0.159315 0.00025 0)
# Probe 3 (0.158462 0.000558 0)
# Probe 4 (0.157274 0.000976 0)
# Probe 5 (0.155755 0.001491 0)
# Probe 6 (0.15391 0.002085 0)
# Probe 7 (0.15175 0.002746 0)
# Probe 8 (0.149282 0.003466 0)
# Probe 9 (0.146517 0.004243 0)
# Probe 10 (0.143469 0.005074 0)
# Probe 11 (0.140147 0.005947 0)
# Probe 12 (0.136568 0.006853 0)
# Probe 13 (0.132747 0.007781 0)
# Probe 14 (0.128701 0.008725 0)
# Probe 15 (0.124446 0.009677 0)
# Probe 16 (0.12 0.010627 0)
# Probe 17 (0.115382 0.011563 0)
# Probe 18 (0.110614 0.012472 0)
# Probe 19 (0.105715 0.013346 0)
# Probe 20 (0.100706 0.014173 0)
# Probe 21 (0.095608 0.014946 0)
# Probe 22 (0.090442 0.015656 0)
# Probe 23 (0.085232 0.016296 0)
# Probe 24 (0.08 0.016861 0)
# Probe 25 (0.074768 0.017339 0)
# Probe 26 (0.069558 0.017722 0)
# Probe 27 (0.064392 0.017997 0)
# Probe 28 (0.059294 0.018152 0)
# Probe 29 (0.054285 0.018178 0)
# Probe 30 (0.049386 0.01807 0)
# Probe 31 (0.044618 0.017826 0)
# Probe 32 (0.04 0.017445 0)
# Probe 33 (0.035554 0.016934 0)
# Probe 34 (0.031299 0.016304 0)
# Probe 35 (0.027253 0.015562 0)
# Probe 36 (0.023432 0.014712 0)
# Probe 37 (0.019853 0.013771 0)
# Probe 38 (0.016531 0.012752 0)
# Probe 39 (0.013483 0.011653 0)
# Probe 40 (0.010718 0.010466 0)
# Probe 41 (0.00825 0.009205 0)
# Probe 42 (0.00609 0.007899 0)
# Probe 43 (0.004245 0.006589 0)
# Probe 44 (0.002726 0.005285 0)
# Probe 45 (0.001538 0.003982 0)
# Probe 46 (0.000685 0.002646 0)
# Probe 47 (0.000171 0.00132 0)
# Probe 48 (0 0.00012 0)
# Probe 49 (0.000171 -0.000906 0)
# Probe 50 (0.000685 -0.001763 0)
# Probe 51 (0.001538 -0.002544 0)
# Probe 52 (0.002726 -0.003298 0)
# Probe 53 (0.004245 -0.004003 0)
# Probe 54 (0.00609 -0.004664 0)
# Probe 55 (0.00825 -0.00525 0)
# Probe 56 (0.010718 -0.005731 0)
# Probe 57 (0.013483 -0.006107 0)
# Probe 58 (0.016531 -0.006386 0)
# Probe 59 (0.019853 -0.00657 0)
# Probe 60 (0.023432 -0.006666 0)
# Probe 61 (0.027253 -0.006683 0)
# Probe 62 (0.031299 -0.006635 0)
# Probe 63 (0.035554 -0.006525 0)
# Probe 64 (0.04 -0.006358 0)
# Probe 65 (0.044618 -0.006152 0)
# Probe 66 (0.049386 -0.00592 0)
# Probe 67 (0.054285 -0.005675 0)
# Probe 68 (0.059294 -0.005424 0)
# Probe 69 (0.064392 -0.005166 0)
# Probe 70 (0.069558 -0.004901 0)
# Probe 71 (0.074768 -0.004626 0)
# Probe 72 (0.08 -0.004341 0)
# Probe 73 (0.085232 -0.004046 0)
# Probe 74 (0.090442 -0.003744 0)
# Probe 75 (0.095608 -0.003438 0)
# Probe 76 (0.100706 -0.003133 0)
# Probe 77 (0.105715 -0.002835 0)
# Probe 78 (0.110614 -0.002554 0)
# Probe 79 (0.115382 -0.002288 0)
# Probe 80 (0.12 -0.002043 0)
# Probe 81 (0.124446 -0.001818 0)
# Probe 82 (0.128701 -0.00161 0)
# Probe 83 (0.132747 -0.001418 0)
# Probe 84 (0.136568 -0.00124 0)
# Probe 85 (0.140147 -0.001078 0)
# Probe 86 (0.143469 -0.000933 0)
# Probe 87 (0.146517 -0.000803 0)
# Probe 88 (0.149282 -0.00069 0)
# Probe 89 (0.15175 -0.000582 0)
# Probe 90 (0.15391 -0.000475 0)
# Probe 91 (0.155755 -0.000363 0)
# Probe 92 (0.157274 -0.00025 0)
# Probe 93 (0.158462 -0.000147 0)
# Probe 94 (0.159315 -6.7e-05 0)
# Probe 95 (0.159829 -1.8e-05 0)
# Probe 96 (0.16 0 0)
#       Probe             0             1             2             3             4             5             6             7             8             9            10            11            12            13            14            15            16            17            18            19            20            21            22            23            24            25            26            27            28            29            30            31            32            33            34            35            36            37            38            39            40            41            42            43            44            45            46            47            48            49            50            51            52            53            54            55            56            57            58            59            60            61            62            63            64            65            66            67            68            69            70            71            72            73            74            75            76            77            78            79            80            81            82            83            84            85            86            87            88            89            90            91            92            93            94            95            96
#        Time
          200       194.158       187.777       188.242       184.426       185.924       186.388       186.135       186.281       183.142       183.142       175.612       169.001       155.979       151.177       152.251        137.69       126.598       109.986       89.2928       89.2928       79.2782       79.2782       63.9119       33.7257       31.7627      -1.23112      -1.23112      -10.5871      -15.2964      -9.38172      -13.3695      -36.8017      -10.4877      -14.8915      -36.6484       14.3424       14.3424       19.1585       52.8524       48.9358       88.7891       135.306       174.629       243.251       282.813        337.04       435.818       435.818       436.112       357.401       260.381       192.121       141.793       81.9584       78.4574       65.9458       66.1277       57.2323       77.9114       66.9144       91.3207       76.2791       81.9652        103.32       115.504       111.031       128.162       128.162       118.605       127.275       141.739        138.08        138.08       144.574       144.574       149.335       161.122       153.372       168.661       171.507       178.224       171.851       181.097       186.615       191.473       187.409       196.103       196.647       199.413       204.467       202.759       202.887       202.605       200.336       203.371       198.624       194.158
          400       113.518       112.715       112.915       109.337       106.337       100.435       91.0526       89.2045       79.8572       79.8572       64.2352       50.1446       33.8514       26.9037       31.6489       12.3182       1.55005      -22.5477      -39.2099      -39.2099      -43.1137      -43.1137      -57.1768      -89.8028      -90.0814      -126.934      -126.934      -131.983       -136.63      -126.578      -129.599        -158.4      -125.691      -130.726      -157.441      -97.2939      -97.2939      -93.7196      -56.7023      -64.6474      -23.1887       30.8943       69.6447       146.073       192.472       254.786       376.959       376.959       398.761       321.764       215.731       134.738       75.7099       2.50689      -6.60667      -23.5638      -25.3749      -38.4582      -13.9538      -29.8139      0.672529      -20.9404      -13.8702       12.5455       26.7727       20.0005       41.9799       41.9799       26.4609       36.4157       56.7376       48.3358       48.3358       53.8972       53.8972       57.3387       74.6544       57.9386       81.9372       81.7245        88.536       73.0928       87.6638       93.1405       95.2167       81.6021       98.8076       92.8015       93.6099       108.158       97.9415       99.9757       107.825       105.868       119.914       112.771       113.518
          600       46.5143       45.4359       45.5326       39.5284       35.2177       26.7457       14.7062       13.5388        3.2872        3.2872      -12.7988      -28.2509      -41.7072      -48.3261      -42.1039      -60.4519      -69.0722      -93.5482      -106.472      -106.472      -107.767      -107.767      -120.345      -151.679      -151.468      -187.435      -187.435      -191.006      -195.459      -184.686      -187.138      -215.877       -182.54       -187.42      -213.929      -153.361      -153.361      -149.415       -112.14      -119.715      -77.9331      -23.9194       15.2837       91.8449       138.104       200.373       321.493       321.493       340.443       260.988       153.416       72.3449       12.9045      -60.4046      -68.6035      -85.3317      -86.7848      -99.8257      -74.9071      -90.8284      -60.0062      -81.8281      -74.7053      -48.1206      -33.8694      -40.7716      -18.7834      -18.7834      -34.7362      -25.0094      -4.67083      -13.7679      -13.7679      -9.07373      -9.07373      -6.45076       10.7106      -7.31648       16.8579       15.4287       21.0996       4.18935       18.7363        23.386       23.6107       7.97992       26.2384       18.1125       17.7562       34.4414       21.8001       24.1003       34.4105       33.1625       51.4542       44.9949       46.5143
          759       40.2819       39.2038       39.2989        33.299       28.9563       20.4331       8.33069       7.13815      -3.15551      -3.15551      -19.2876      -34.7724      -48.2504       -54.881      -48.6484      -67.0109      -75.6246      -100.121      -113.029      -113.029      -114.317      -114.317      -126.887      -158.222      -158.009      -193.975      -193.975       -197.54      -201.994      -191.221      -193.668      -222.411       -189.07      -193.951      -220.463      -159.886      -159.886      -155.936      -118.652      -126.223      -84.4261      -30.3997       8.82479        85.424       131.702       194.003       315.184       315.184       334.161       254.699       147.116       66.0482       6.60057      -66.7132       -74.891      -91.6133      -93.0522      -106.096      -81.1597      -97.0843      -66.2455      -88.0768      -80.9501      -54.3485      -40.0907      -46.9961      -24.9977      -24.9977      -40.9625      -31.2323      -10.8835      -19.9897      -19.9897      -15.2979      -15.2979      -12.6816       4.49077      -13.5565       10.6348       9.19813       14.8663      -2.06725       12.4925       17.1445       17.3558       1.69543       19.9819         11.83       11.4601       28.1819       15.4996       17.7889       28.1266       26.8685       45.2421       38.7567       40.2819
