# Probe 0 (0.16 0 0)
# Probe 1 (0.159829 6.2e-05 0)
# Probe 2 (0.159315 0.00025 0)
# Probe 3 (0.158462 0.000558 0)
# Probe 4 (0.157274 0.000976 0)
# Probe 5 (0.155755 0.001491 0)
# Probe 6 (0.15391 0.002085 0)
# Probe 7 (0.15175 0.002746 0)
# Probe 8 (0.149282 0.003466 0)
# Probe 9 (0.146517 0.004243 0)
# Probe 10 (0.143469 0.005074 0)
# Probe 11 (0.140147 0.005947 0)
# Probe 12 (0.136568 0.006853 0)
# Probe 13 (0.132747 0.007781 0)
# Probe 14 (0.128701 0.008725 0)
# Probe 15 (0.124446 0.009677 0)
# Probe 16 (0.12 0.010627 0)
# Probe 17 (0.115382 0.011563 0)
# Probe 18 (0.110614 0.012472 0)
# Probe 19 (0.105715 0.013346 0)
# Probe 20 (0.100706 0.014173 0)
# Probe 21 (0.095608 0.014946 0)
# Probe 22 (0.090442 0.015656 0)
# Probe 23 (0.085232 0.016296 0)
# Probe 24 (0.08 0.016861 0)
# Probe 25 (0.074768 0.017339 0)
# Probe 26 (0.069558 0.017722 0)
# Probe 27 (0.064392 0.017997 0)
# Probe 28 (0.059294 0.018152 0)
# Probe 29 (0.054285 0.018178 0)
# Probe 30 (0.049386 0.01807 0)
# Probe 31 (0.044618 0.017826 0)
# Probe 32 (0.04 0.017445 0)
# Probe 33 (0.035554 0.016934 0)
# Probe 34 (0.031299 0.016304 0)
# Probe 35 (0.027253 0.015562 0)
# Probe 36 (0.023432 0.014712 0)
# Probe 37 (0.019853 0.013771 0)
# Probe 38 (0.016531 0.012752 0)
# Probe 39 (0.013483 0.011653 0)
# Probe 40 (0.010718 0.010466 0)
# Probe 41 (0.00825 0.009205 0)
# Probe 42 (0.00609 0.007899 0)
# Probe 43 (0.004245 0.006589 0)
# Probe 44 (0.002726 0.005285 0)
# Probe 45 (0.001538 0.003982 0)
# Probe 46 (0.000685 0.002646 0)
# Probe 47 (0.000171 0.00132 0)
# Probe 48 (0 0.00012 0)
# Probe 49 (0.000171 -0.000906 0)
# Probe 50 (0.000685 -0.001763 0)
# Probe 51 (0.001538 -0.002544 0)
# Probe 52 (0.002726 -0.003298 0)
# Probe 53 (0.004245 -0.004003 0)
# Probe 54 (0.00609 -0.004664 0)
# Probe 55 (0.00825 -0.00525 0)
# Probe 56 (0.010718 -0.005731 0)
# Probe 57 (0.013483 -0.006107 0)
# Probe 58 (0.016531 -0.006386 0)
# Probe 59 (0.019853 -0.00657 0)
# Probe 60 (0.023432 -0.006666 0)
# Probe 61 (0.027253 -0.006683 0)
# Probe 62 (0.031299 -0.006635 0)
# Probe 63 (0.035554 -0.006525 0)
# Probe 64 (0.04 -0.006358 0)
# Probe 65 (0.044618 -0.006152 0)
# Probe 66 (0.049386 -0.00592 0)
# Probe 67 (0.054285 -0.005675 0)
# Probe 68 (0.059294 -0.005424 0)
# Probe 69 (0.064392 -0.005166 0)
# Probe 70 (0.069558 -0.004901 0)
# Probe 71 (0.074768 -0.004626 0)
# Probe 72 (0.08 -0.004341 0)
# Probe 73 (0.085232 -0.004046 0)
# Probe 74 (0.090442 -0.003744 0)
# Probe 75 (0.095608 -0.003438 0)
# Probe 76 (0.100706 -0.003133 0)
# Probe 77 (0.105715 -0.002835 0)
# Probe 78 (0.110614 -0.002554 0)
# Probe 79 (0.115382 -0.002288 0)
# Probe 80 (0.12 -0.002043 0)
# Probe 81 (0.124446 -0.001818 0)
# Probe 82 (0.128701 -0.00161 0)
# Probe 83 (0.132747 -0.001418 0)
# Probe 84 (0.136568 -0.00124 0)
# Probe 85 (0.140147 -0.001078 0)
# Probe 86 (0.143469 -0.000933 0)
# Probe 87 (0.146517 -0.000803 0)
# Probe 88 (0.149282 -0.00069 0)
# Probe 89 (0.15175 -0.000582 0)
# Probe 90 (0.15391 -0.000475 0)
# Probe 91 (0.155755 -0.000363 0)
# Probe 92 (0.157274 -0.00025 0)
# Probe 93 (0.158462 -0.000147 0)
# Probe 94 (0.159315 -6.7e-05 0)
# Probe 95 (0.159829 -1.8e-05 0)
# Probe 96 (0.16 0 0)
#       Probe             0             1             2             3             4             5             6             7             8             9            10            11            12            13            14            15            16            17            18            19            20            21            22            23            24            25            26            27            28            29            30            31            32            33            34            35            36            37            38            39            40            41            42            43            44            45            46            47            48            49            50            51            52            53            54            55            56            57            58            59            60            61            62            63            64            65            66            67            68            69            70            71            72            73            74            75            76            77            78            79            80            81            82            83            84            85            86            87            88            89            90            91            92            93            94            95            96
#        Time
          200             (4.18494 0.0717551 2.52241e-20)             (2.8839 -1.12177 -2.48071e-19)             (4.48787 -1.58215 -1.86078e-19)             (4.86738 -1.99861 -7.94254e-19)             (4.77303 -1.89265 -1.63291e-18)             (4.68385 -1.80721 -1.24565e-18)             (3.62161 -1.06095 4.17767e-18)             (3.38324 -0.944145 3.16987e-18)             (3.98133 -1.06776 3.47132e-18)             (3.98133 -1.06776 3.47132e-18)             (7.13354 -1.62582 6.7976e-18)             (5.05543 -1.06447 2.33362e-18)             (6.80119 -1.49099 0)             (10.1792 -2.20913 -2.48683e-18)             (6.87651 -1.5799 2.60016e-18)             (8.50814 -1.61412 4.02856e-18)             (7.64661 -1.41187 0)             (10.2156 -1.65493 0)             (10.2764 -1.50361 -9.72887e-19)             (10.2764 -1.50361 -9.72887e-19)             (11.5872 -1.77408 2.7356e-20)             (11.5872 -1.77408 2.7356e-20)             (13.1932 -1.45008 0)             (14.2039 -1.28862 3.3995e-19)             (21.067 -1.82218 -2.65221e-19)             (15.191 -0.61363 -3.49951e-21)             (15.191 -0.61363 -3.49951e-21)             (15.3844 0.0159368 9.70615e-21)             (23.7765 0.187313 0)             (16.5989 0.401479 -1.12284e-19)             (17.4322 1.55837 0)             (25.1202 1.5169 0)             (17.8931 2.5896 3.49224e-20)             (24.8193 2.97184 -2.24756e-20)             (17.1924 2.78908 -2.70806e-19)             (17.7003 4.25553 -9.85658e-21)             (17.7003 4.25553 -9.85658e-21)             (18.6242 5.78844 -1.13396e-21)             (24.2054 8.0533 5.70374e-19)             (23.8749 9.09015 -2.9495e-19)             (16.1502 8.58244 0)             (20.3083 10.9465 -5.37032e-19)             (13.2854 8.37337 -7.71616e-19)             (10.7522 10.446 1.12033e-18)             (13.0098 11.8793 -1.05727e-18)             (10.5268 10.6527 0)             (3.57561 3.8329 4.38858e-18)             (3.57561 3.8329 4.38858e-18)             (3.68146 -4.95111 6.52342e-19)             (7.35462 -10.7481 1.78361e-18)             (13.1244 -13.5506 -4.32683e-20)             (16.7984 -12.3239 -5.32842e-20)             (14.0537 -9.95875 3.48042e-19)             (15.7518 -8.23474 -5.03166e-19)             (23.1623 -7.42714 -4.60508e-19)             (23.3171 -5.60611 0)             (23.2119 -4.17591 2.0535e-19)             (23.0183 -3.17157 -1.12668e-20)             (22.0882 -1.93153 -3.19477e-19)             (22.0336 -1.46002 1.49653e-19)             (21.156 -0.78798 -6.09521e-19)             (21.1879 -0.570767 5.01415e-19)             (13.6653 -0.14809 3.05797e-20)             (14.4755 0.0209767 0)             (12.1721 0.5833 -1.33004e-18)             (17.9474 0.642331 0)             (11.7906 0.446523 -1.31227e-18)             (11.7906 0.446523 -1.31227e-18)             (11.9913 0.423669 0)             (16.5115 0.594541 2.34278e-20)             (16.0405 0.657371 -1.77314e-18)             (10.9582 0.422874 0)             (10.9582 0.422874 0)             (10.4955 0.375818 0)             (10.4955 0.375818 0)             (14.1947 0.763452 -1.04174e-18)             (13.891 0.580635 1.11736e-18)             (13.3823 0.533084 2.17826e-18)             (12.3109 0.736935 9.00026e-19)             (8.60303 0.372052 6.61497e-18)             (7.82886 0.461281 -5.40141e-19)             (11.205 0.463974 6.26366e-18)             (10.974 0.342593 -6.12109e-18)             (6.94135 0.167233 -6.55252e-18)             (6.49153 0.290853 4.45878e-19)             (8.77895 0.268365 0)             (8.01293 0.189747 1.21816e-18)             (7.86326 0.193132 -4.89767e-18)             (6.90653 0.339347 -3.14802e-18)             (4.35075 0.22853 -5.12286e-19)             (4.72536 0.174402 -2.42587e-19)             (5.94472 0.604148 1.27288e-18)             (5.84928 0.800324 0)             (6.00106 0.868625 0)             (5.60871 0.604274 0)             (4.13542 0.418392 -2.22409e-19)             (4.18494 0.0717551 2.52241e-20)
          400             (2.28391 0.435586 6.23535e-20)             (0.798005 -0.200568 -4.79669e-19)             (2.1996 -0.56545 -3.60111e-19)             (3.90817 -1.15196 -8.77368e-19)             (5.34244 -1.60542 -1.12396e-18)             (6.11764 -1.649 -5.78068e-19)             (6.07377 -1.41754 1.29662e-18)             (5.95848 -1.54667 9.13801e-19)             (7.04935 -1.90589 8.78298e-19)             (7.04935 -1.90589 8.78298e-19)             (12.0741 -2.96127 1.47768e-18)             (8.33673 -1.91616 2.95343e-19)             (10.5574 -2.31212 0)             (15.3429 -3.50757 -3.24536e-19)             (10.2305 -2.41961 3.36659e-19)             (12.3105 -2.45908 2.19877e-19)             (10.7118 -2.07573 0)             (13.6467 -2.44403 0)             (13.1127 -2.01337 2.31406e-19)             (13.1127 -2.01337 2.31406e-19)             (14.2081 -2.21325 4.21289e-20)             (14.2081 -2.21325 4.21289e-20)             (15.9362 -1.75636 0)             (16.6308 -1.59016 -6.23939e-19)             (24.5781 -2.25942 7.59534e-19)             (17.3917 -0.784301 -3.15168e-19)             (17.3917 -0.784301 -3.15168e-19)             (17.3425 -0.0089923 1.07353e-19)             (26.7771 0.135208 0)             (18.4935 0.422164 1.0375e-18)             (19.3082 1.73662 0)             (27.8303 1.64548 0)             (19.614 2.84461 3.82401e-19)             (27.2624 3.24676 -3.52764e-19)             (18.8093 3.05683 -1.0742e-18)             (19.307 4.63432 -7.67614e-19)             (19.307 4.63432 -7.67614e-19)             (20.3093 6.32512 5.42464e-21)             (26.5274 8.81151 -4.7233e-19)             (26.1785 10.0512 4.44658e-19)             (17.711 9.42747 0)             (22.4445 12.1318 -1.49237e-19)             (14.7181 9.38394 -2.33778e-19)             (12.0881 11.7894 6.59088e-19)             (14.7542 13.5904 -6.26436e-19)             (12.055 12.5886 0)             (4.0896 5.2705 3.21292e-18)             (4.0896 5.2705 3.21292e-18)             (3.94002 -3.86885 6.13789e-19)             (7.60406 -10.2356 1.59083e-18)             (13.7024 -13.685 -3.41273e-20)             (17.7473 -12.8478 -3.74089e-20)             (14.9051 -10.4606 1.76302e-19)             (16.9483 -8.69222 -5.21146e-20)             (25.3755 -8.01889 -5.69121e-21)             (25.7133 -6.10839 0)             (25.7884 -4.55573 -7.80031e-21)             (25.7413 -3.48705 -9.02884e-21)             (24.8816 -2.09801 7.59018e-20)             (24.9799 -1.59947 -4.85915e-20)             (24.1728 -0.815722 -1.02014e-20)             (24.3724 -0.588288 -9.70938e-20)             (15.6448 -0.143247 -4.50416e-21)             (16.8939 0.0573607 0)             (14.2923 0.706652 -3.5933e-19)             (21.2695 0.825225 0)             (14.096 0.562626 -3.14102e-19)             (14.096 0.562626 -3.14102e-19)             (14.4695 0.576985 0)             (20.2761 0.792361 2.42558e-20)             (19.9007 0.911541 -5.26424e-19)             (13.7195 0.588412 0)             (13.7195 0.588412 0)             (13.4291 0.540895 0)             (13.4291 0.540895 0)             (18.614 1.10955 -3.12722e-19)             (18.4758 0.909039 4.03838e-19)             (18.0266 0.845325 6.41649e-19)             (16.9181 1.1509 3.18354e-19)             (12.1421 0.539972 2.17205e-18)             (11.2659 0.770304 -1.55233e-19)             (16.4233 0.834118 1.9292e-18)             (16.543 0.791897 -1.93316e-18)             (10.9391 0.313439 -2.02765e-18)             (10.5821 0.634387 1.35801e-19)             (14.6511 0.658681 0)             (14.0445 0.595535 3.45577e-19)             (14.4736 0.685396 -1.35326e-18)             (13.1957 0.887895 -8.03828e-19)             (8.6646 0.571761 -1.38703e-19)             (9.57523 0.443659 -5.88219e-20)             (11.6803 0.729345 3.37609e-19)             (10.8721 1.27068 0)             (9.9875 0.974496 0)             (7.58177 0.667664 0)             (3.97064 0.291201 -1.43576e-19)             (2.28391 0.435586 6.23535e-20)
          600             (2.41816 0.412123 2.50536e-20)             (0.996819 -0.244948 -1.65983e-19)             (2.87979 -0.747863 -1.12503e-19)             (4.92412 -1.49462 -2.50662e-19)             (6.64958 -2.01711 -3.05944e-19)             (7.56945 -2.09258 -1.32648e-19)             (7.27493 -1.78404 1.56861e-19)             (7.0349 -1.8964 1.14382e-19)             (8.17747 -2.24667 3.13174e-20)             (8.17747 -2.24667 3.13174e-20)             (13.5632 -3.44856 -2.91476e-19)             (9.26486 -2.19766 -3.66024e-19)             (11.4702 -2.51194 0)             (16.5004 -3.83847 4.79868e-19)             (10.9671 -2.61466 -4.98404e-19)             (13.0823 -2.64149 -1.24969e-18)             (11.2898 -2.21201 0)             (14.186 -2.60994 0)             (13.4898 -2.09257 7.43135e-19)             (13.4898 -2.09257 7.43135e-19)             (14.4874 -2.26327 4.48406e-20)             (14.4874 -2.26327 4.48406e-20)             (16.2035 -1.78745 0)             (16.8086 -1.62238 -1.07456e-18)             (24.8105 -2.30588 1.2446e-18)             (17.5066 -0.805747 -4.62339e-19)             (17.5066 -0.805747 -4.62339e-19)             (17.4161 -0.0132086 1.54746e-19)             (26.8717 0.121748 0)             (18.5369 0.420046 1.62227e-18)             (19.3424 1.73863 0)             (27.8673 1.6406 0)             (19.6289 2.84615 5.55088e-19)             (27.2732 3.24326 -5.17301e-19)             (18.8132 3.05408 -1.46109e-18)             (19.2981 4.63127 -1.13886e-18)             (19.2981 4.63127 -1.13886e-18)             (20.2934 6.31979 8.5883e-21)             (26.4906 8.79557 -9.81082e-19)             (26.1338 10.0262 7.86677e-19)             (17.6696 9.40028 0)             (22.3827 12.0909 3.87008e-20)             (14.6651 9.33778 4.91168e-21)             (12.0261 11.7245 4.57268e-19)             (14.6677 13.4947 -4.34504e-19)             (11.9726 12.4554 0)             (4.05623 5.11596 2.78233e-18)             (4.05623 5.11596 2.78233e-18)             (3.95822 -4.09533 5.20475e-19)             (7.68736 -10.4821 1.26992e-18)             (13.8346 -13.8869 -2.21725e-20)             (17.8964 -12.975 -2.13036e-20)             (15.0097 -10.5461 2.98422e-20)             (17.0524 -8.76206 2.76287e-19)             (25.509 -8.07056 3.10064e-19)             (25.8339 -6.1429 0)             (25.9032 -4.57721 -1.41823e-19)             (25.849 -3.50445 -9.2404e-21)             (24.9855 -2.10618 3.10783e-19)             (25.0824 -1.60677 -1.63876e-19)             (24.2777 -0.816997 3.41647e-19)             (24.4804 -0.589575 -4.3607e-19)             (15.7092 -0.14309 -2.41558e-20)             (16.9774 0.0590634 0)             (14.3684 0.711457 1.87196e-19)             (21.3915 0.833748 0)             (14.1873 0.56897 2.2118e-19)             (14.1873 0.56897 2.2118e-19)             (14.5749 0.587335 0)             (20.4535 0.808659 2.40691e-20)             (20.0968 0.931816 1.14602e-19)             (13.8823 0.603829 0)             (13.8823 0.603829 0)             (13.6331 0.562362 0)             (13.6331 0.562362 0)             (18.9666 1.15498 3.01295e-20)             (18.8736 0.955835 6.86518e-20)             (18.4679 0.896441 -5.24215e-20)             (17.4027 1.20793 6.05737e-20)             (12.5721 0.558083 2.97963e-19)             (11.6934 0.822998 -3.40035e-21)             (17.1036 0.90269 1.89718e-19)             (17.3176 0.88095 -3.30717e-19)             (11.5682 0.337253 -3.95706e-19)             (11.2351 0.701644 3.17034e-20)             (15.6206 0.739258 0)             (15.0899 0.679201 7.69673e-20)             (15.6581 0.791689 -2.57467e-19)             (14.3411 0.997704 -1.50941e-19)             (9.47136 0.642957 -4.04561e-20)             (10.496 0.505971 -1.19495e-20)             (12.8397 0.779847 7.75814e-20)             (11.9091 1.36611 0)             (10.8158 0.988038 0)             (7.99048 0.656095 0)             (4.07158 0.290938 -5.59861e-20)             (2.41816 0.412123 2.50536e-20)
          759             (2.41933 0.416066 2.17431e-20)             (0.992227 -0.243477 -1.43709e-19)             (2.8674 -0.743301 -9.7397e-20)             (4.91517 -1.48868 -2.12068e-19)             (6.64832 -2.01437 -2.51963e-19)             (7.57134 -2.09026 -1.03169e-19)             (7.28168 -1.78421 7.98918e-20)             (7.04145 -1.89779 5.87695e-20)             (8.18533 -2.24901 -3.00285e-20)             (8.18533 -2.24901 -3.00285e-20)             (13.5761 -3.45226 -4.25905e-19)             (9.27223 -2.19953 -4.17203e-19)             (11.4785 -2.51365 0)             (16.5119 -3.84171 5.48201e-19)             (10.9739 -2.61656 -5.69412e-19)             (13.0899 -2.64332 -1.37924e-18)             (11.295 -2.21323 0)             (14.1913 -2.61151 0)             (13.4935 -2.09334 7.93275e-19)             (13.4935 -2.09334 7.93275e-19)             (14.4902 -2.26377 4.48523e-20)             (14.4902 -2.26377 4.48523e-20)             (16.2062 -1.7877 0)             (16.8104 -1.62269 -1.12257e-18)             (24.813 -2.30633 1.29712e-18)             (17.5079 -0.805937 -4.78435e-19)             (17.5079 -0.805937 -4.78435e-19)             (17.4173 -0.0131939 1.6003e-19)             (26.8733 0.121684 0)             (18.538 0.420105 1.68836e-18)             (19.3437 1.7388 0)             (27.869 1.6407 0)             (19.6303 2.84641 5.74909e-19)             (27.275 3.24352 -5.36242e-19)             (18.8146 3.05434 -1.5058e-18)             (19.2998 4.63178 -1.18193e-18)             (19.2998 4.63178 -1.18193e-18)             (20.2955 6.32055 8.95785e-21)             (26.4933 8.79656 -1.04072e-18)             (26.1366 10.0274 8.27013e-19)             (17.6717 9.40155 0)             (22.3854 12.0925 6.09109e-20)             (14.667 9.33911 3.33819e-20)             (12.0278 11.7265 4.33e-19)             (14.6697 13.4967 -4.11444e-19)             (11.9742 12.4574 0)             (4.05691 5.11685 2.72748e-18)             (4.05691 5.11685 2.72748e-18)             (3.95886 -4.09642 5.11042e-19)             (7.689 -10.4842 1.23816e-18)             (13.837 -13.8891 -2.10048e-20)             (17.8993 -12.977 -1.97102e-20)             (15.0117 -10.5474 1.52616e-20)             (17.055 -8.76335 3.09258e-19)             (25.5129 -8.07182 3.41971e-19)             (25.8377 -6.14384 0)             (25.907 -4.5778 -1.55532e-19)             (25.8528 -3.50497 -9.24459e-21)             (24.9894 -2.10644 3.34847e-19)             (25.0864 -1.60702 -1.7569e-19)             (24.2821 -0.817018 3.77755e-19)             (24.4849 -0.589648 -4.70813e-19)             (15.7115 -0.143017 -2.61704e-20)             (16.9807 0.059217 0)             (14.3713 0.711674 2.43093e-19)             (21.3964 0.834052 0)             (14.1906 0.569087 2.75559e-19)             (14.1906 0.569087 2.75559e-19)             (14.5785 0.587654 0)             (20.4592 0.808993 2.40486e-20)             (20.1028 0.932231 1.78905e-19)             (13.8865 0.604165 0)             (13.8865 0.604165 0)             (13.6379 0.562679 0)             (13.6379 0.562679 0)             (18.9742 1.15575 6.30348e-20)             (18.8818 0.956492 3.62656e-20)             (18.4763 0.897164 -1.17431e-19)             (17.4114 1.20882 3.67272e-20)             (12.5792 0.558468 1.29042e-19)             (11.7004 0.823721 9.82764e-21)             (17.1145 0.903642 3.7984e-20)             (17.3297 0.882043 -1.93878e-19)             (11.5772 0.337606 -2.60293e-19)             (11.2445 0.702564 2.32839e-20)             (15.6345 0.740377 0)             (15.1047 0.680369 5.55227e-20)             (15.675 0.793412 -1.72734e-19)             (14.3578 0.999605 -1.01582e-19)             (9.48307 0.64421 -3.30595e-20)             (10.5102 0.507305 -8.4836e-21)             (12.8605 0.781913 5.82691e-20)             (11.9298 1.36947 0)             (10.8366 0.990394 0)             (8.00688 0.657815 0)             (4.08202 0.292408 -4.81103e-20)             (2.41933 0.416066 2.17431e-20)
