# Probe 0 (0.16 0 0)
# Probe 1 (0.159829 6.2e-05 0)
# Probe 2 (0.159315 0.00025 0)
# Probe 3 (0.158462 0.000558 0)
# Probe 4 (0.157274 0.000976 0)
# Probe 5 (0.155755 0.001491 0)
# Probe 6 (0.15391 0.002085 0)
# Probe 7 (0.15175 0.002746 0)
# Probe 8 (0.149282 0.003466 0)
# Probe 9 (0.146517 0.004243 0)
# Probe 10 (0.143469 0.005074 0)
# Probe 11 (0.140147 0.005947 0)
# Probe 12 (0.136568 0.006853 0)
# Probe 13 (0.132747 0.007781 0)
# Probe 14 (0.128701 0.008725 0)
# Probe 15 (0.124446 0.009677 0)
# Probe 16 (0.12 0.010627 0)
# Probe 17 (0.115382 0.011563 0)
# Probe 18 (0.110614 0.012472 0)
# Probe 19 (0.105715 0.013346 0)
# Probe 20 (0.100706 0.014173 0)
# Probe 21 (0.095608 0.014946 0)
# Probe 22 (0.090442 0.015656 0)
# Probe 23 (0.085232 0.016296 0)
# Probe 24 (0.08 0.016861 0)
# Probe 25 (0.074768 0.017339 0)
# Probe 26 (0.069558 0.017722 0)
# Probe 27 (0.064392 0.017997 0)
# Probe 28 (0.059294 0.018152 0)
# Probe 29 (0.054285 0.018178 0)
# Probe 30 (0.049386 0.01807 0)
# Probe 31 (0.044618 0.017826 0)
# Probe 32 (0.04 0.017445 0)
# Probe 33 (0.035554 0.016934 0)
# Probe 34 (0.031299 0.016304 0)
# Probe 35 (0.027253 0.015562 0)
# Probe 36 (0.023432 0.014712 0)
# Probe 37 (0.019853 0.013771 0)
# Probe 38 (0.016531 0.012752 0)
# Probe 39 (0.013483 0.011653 0)
# Probe 40 (0.010718 0.010466 0)
# Probe 41 (0.00825 0.009205 0)
# Probe 42 (0.00609 0.007899 0)
# Probe 43 (0.004245 0.006589 0)
# Probe 44 (0.002726 0.005285 0)
# Probe 45 (0.001538 0.003982 0)
# Probe 46 (0.000685 0.002646 0)
# Probe 47 (0.000171 0.00132 0)
# Probe 48 (0 0.00012 0)
# Probe 49 (0.000171 -0.000906 0)
# Probe 50 (0.000685 -0.001763 0)
# Probe 51 (0.001538 -0.002544 0)
# Probe 52 (0.002726 -0.003298 0)
# Probe 53 (0.004245 -0.004003 0)
# Probe 54 (0.00609 -0.004664 0)
# Probe 55 (0.00825 -0.00525 0)
# Probe 56 (0.010718 -0.005731 0)
# Probe 57 (0.013483 -0.006107 0)
# Probe 58 (0.016531 -0.006386 0)
# Probe 59 (0.019853 -0.00657 0)
# Probe 60 (0.023432 -0.006666 0)
# Probe 61 (0.027253 -0.006683 0)
# Probe 62 (0.031299 -0.006635 0)
# Probe 63 (0.035554 -0.006525 0)
# Probe 64 (0.04 -0.006358 0)
# Probe 65 (0.044618 -0.006152 0)
# Probe 66 (0.049386 -0.00592 0)
# Probe 67 (0.054285 -0.005675 0)
# Probe 68 (0.059294 -0.005424 0)
# Probe 69 (0.064392 -0.005166 0)
# Probe 70 (0.069558 -0.004901 0)
# Probe 71 (0.074768 -0.004626 0)
# Probe 72 (0.08 -0.004341 0)
# Probe 73 (0.085232 -0.004046 0)
# Probe 74 (0.090442 -0.003744 0)
# Probe 75 (0.095608 -0.003438 0)
# Probe 76 (0.100706 -0.003133 0)
# Probe 77 (0.105715 -0.002835 0)
# Probe 78 (0.110614 -0.002554 0)
# Probe 79 (0.115382 -0.002288 0)
# Probe 80 (0.12 -0.002043 0)
# Probe 81 (0.124446 -0.001818 0)
# Probe 82 (0.128701 -0.00161 0)
# Probe 83 (0.132747 -0.001418 0)
# Probe 84 (0.136568 -0.00124 0)
# Probe 85 (0.140147 -0.001078 0)
# Probe 86 (0.143469 -0.000933 0)
# Probe 87 (0.146517 -0.000803 0)
# Probe 88 (0.149282 -0.00069 0)
# Probe 89 (0.15175 -0.000582 0)
# Probe 90 (0.15391 -0.000475 0)
# Probe 91 (0.155755 -0.000363 0)
# Probe 92 (0.157274 -0.00025 0)
# Probe 93 (0.158462 -0.000147 0)
# Probe 94 (0.159315 -6.7e-05 0)
# Probe 95 (0.159829 -1.8e-05 0)
# Probe 96 (0.16 0 0)
#       Probe             0             1             2             3             4             5             6             7             8             9            10            11            12            13            14            15            16            17            18            19            20            21            22            23            24            25            26            27            28            29            30            31            32            33            34            35            36            37            38            39            40            41            42            43            44            45            46            47            48            49            50            51            52            53            54            55            56            57            58            59            60            61            62            63            64            65            66            67            68            69            70            71            72            73            74            75            76            77            78            79            80            81            82            83            84            85            86            87            88            89            90            91            92            93            94            95            96
#        Time
          200       193.984       187.617       188.191       184.451       185.917        186.38       186.126       186.273       183.134       183.134       175.604       168.993       155.972       151.171       152.245       137.684       126.592        109.98       89.2875       89.2875       79.2735       79.2735       63.9073       33.7214       31.7584      -1.23539      -1.23539      -10.5911      -15.3004      -9.38554      -13.3733      -36.8056      -10.4914      -14.8952      -36.6523       14.3388       14.3388       19.1548       52.8488       48.9319       88.7852       135.303       174.626       243.247       282.809       337.037       435.816       435.816       436.113       357.404       260.385       192.126       141.798       81.9629       78.4611       65.9494        66.131       57.2355       77.9143       66.9174       91.3234       76.2819       81.9679       103.323       115.506       111.034       128.165       128.165       118.608       127.277       141.742       138.083       138.083       144.577       144.577       149.338       161.124       153.375       168.664        171.51       178.227       171.854         181.1       186.618       191.476       187.412       196.107       196.651       199.417       204.471       202.762       202.892        202.61       200.342       203.381       198.643       193.984
          400       113.684       112.918       113.089         109.2       106.308       100.411       91.0289       89.1826       79.8359       79.8359       64.2149       50.1239       33.8331       26.8858        31.632       12.3018        1.5348      -22.5631      -39.2237      -39.2237      -43.1264      -43.1264       -57.189      -89.8149      -90.0932      -126.946      -126.946      -131.994      -136.642       -126.59      -129.611      -158.412      -125.703      -130.738      -157.453      -97.3056      -97.3056      -93.7318      -56.7143      -64.6603      -23.2019       30.8818       69.6314        146.06        192.46       254.775       376.952       376.952       398.764       321.775       215.746       134.753       75.7266       2.52368       -6.5926      -23.5504      -25.3626      -38.4463       -13.943      -29.8033      0.682344      -20.9304      -13.8604       12.5546       26.7815       20.0094       41.9885       41.9885       26.4698       36.4246       56.7463       48.3449       48.3449       53.9066       53.9066       57.3485       74.6642       57.9491       81.9475       81.7357       88.5479       73.1055       87.6769       93.1545       95.2326       81.6194       98.8253       92.8219       93.6333       108.182       97.9702       100.012       107.868       105.924       119.981       112.904       113.684
          600       46.7799       45.7575        45.757       39.3112       35.1605       26.6958       14.6569       13.4929       3.24274       3.24274      -12.8413      -28.2942      -41.7462      -48.3646      -42.1406      -60.4878      -69.1065      -93.5833      -106.504      -106.504      -107.798      -107.798      -120.376       -151.71      -151.499      -187.467      -187.467      -191.038      -195.491      -184.718      -187.171      -215.911      -182.574      -187.454      -213.965      -153.395      -153.395      -149.451      -112.176      -119.755      -77.9743      -23.9582       15.2415       91.8035       138.065       200.336       321.471       321.471       340.454       261.025       153.468       72.3973       12.9604      -60.3489      -68.5575      -85.2886      -86.7457       -99.788      -74.8734      -90.7954      -59.9763      -81.7979      -74.6757      -48.0938      -33.8437      -40.7458      -18.7588      -18.7588       -34.711      -24.9847      -4.64683      -13.7433      -13.7433      -9.04865      -9.04865        -6.425       10.7361      -7.28935       16.8845       15.4568        21.129       4.22078       18.7681       23.4198       23.6481       8.02052       26.2795        18.159       17.8087       34.4927       21.8624        24.176       34.4965       33.2703       51.5747       45.2148       46.7799
          759        40.548       39.5264       39.5261       33.0823       28.8999       20.3841       8.28214       7.09294      -3.19937      -3.19937      -19.3298      -34.8155      -48.2895      -54.9197      -48.6854      -67.0475      -75.6598      -100.157      -113.063      -113.063       -114.35       -114.35       -126.92      -158.256      -158.043      -194.011      -194.011      -197.577      -202.031      -191.257      -193.706      -222.451      -189.109      -193.991      -220.506      -159.928      -159.928      -155.981      -118.697      -126.272      -84.4778      -30.4483       8.77109       85.3707       131.652       193.956       315.156       315.156       334.177        254.75       147.187       66.1182        6.6751      -66.6394      -74.8309      -91.5574      -93.0022      -106.048      -81.1173      -97.0432      -66.2085      -88.0398       -80.914      -54.3165      -40.0604      -46.9658      -24.9693      -24.9693      -40.9335      -31.2041      -10.8564      -19.9621      -19.9621      -15.2701      -15.2701      -12.6533       4.51853      -13.5271       10.6635       9.22817       14.8975      -2.03406        12.526       17.1798       17.3945       1.73723       20.0241       11.8775       11.5135        28.234       15.5625        17.865       28.2128       26.9763        45.363       38.9769        40.548
