# Probe 0 (0.16 0 0)
# Probe 1 (0.159829 6.2e-05 0)
# Probe 2 (0.159315 0.00025 0)
# Probe 3 (0.158462 0.000558 0)
# Probe 4 (0.157274 0.000976 0)
# Probe 5 (0.155755 0.001491 0)
# Probe 6 (0.15391 0.002085 0)
# Probe 7 (0.15175 0.002746 0)
# Probe 8 (0.149282 0.003466 0)
# Probe 9 (0.146517 0.004243 0)
# Probe 10 (0.143469 0.005074 0)
# Probe 11 (0.140147 0.005947 0)
# Probe 12 (0.136568 0.006853 0)
# Probe 13 (0.132747 0.007781 0)
# Probe 14 (0.128701 0.008725 0)
# Probe 15 (0.124446 0.009677 0)
# Probe 16 (0.12 0.010627 0)
# Probe 17 (0.115382 0.011563 0)
# Probe 18 (0.110614 0.012472 0)
# Probe 19 (0.105715 0.013346 0)
# Probe 20 (0.100706 0.014173 0)
# Probe 21 (0.095608 0.014946 0)
# Probe 22 (0.090442 0.015656 0)
# Probe 23 (0.085232 0.016296 0)
# Probe 24 (0.08 0.016861 0)
# Probe 25 (0.074768 0.017339 0)
# Probe 26 (0.069558 0.017722 0)
# Probe 27 (0.064392 0.017997 0)
# Probe 28 (0.059294 0.018152 0)
# Probe 29 (0.054285 0.018178 0)
# Probe 30 (0.049386 0.01807 0)
# Probe 31 (0.044618 0.017826 0)
# Probe 32 (0.04 0.017445 0)
# Probe 33 (0.035554 0.016934 0)
# Probe 34 (0.031299 0.016304 0)
# Probe 35 (0.027253 0.015562 0)
# Probe 36 (0.023432 0.014712 0)
# Probe 37 (0.019853 0.013771 0)
# Probe 38 (0.016531 0.012752 0)
# Probe 39 (0.013483 0.011653 0)
# Probe 40 (0.010718 0.010466 0)
# Probe 41 (0.00825 0.009205 0)
# Probe 42 (0.00609 0.007899 0)
# Probe 43 (0.004245 0.006589 0)
# Probe 44 (0.002726 0.005285 0)
# Probe 45 (0.001538 0.003982 0)
# Probe 46 (0.000685 0.002646 0)
# Probe 47 (0.000171 0.00132 0)
# Probe 48 (0 0.00012 0)
# Probe 49 (0.000171 -0.000906 0)
# Probe 50 (0.000685 -0.001763 0)
# Probe 51 (0.001538 -0.002544 0)
# Probe 52 (0.002726 -0.003298 0)
# Probe 53 (0.004245 -0.004003 0)
# Probe 54 (0.00609 -0.004664 0)
# Probe 55 (0.00825 -0.00525 0)
# Probe 56 (0.010718 -0.005731 0)
# Probe 57 (0.013483 -0.006107 0)
# Probe 58 (0.016531 -0.006386 0)
# Probe 59 (0.019853 -0.00657 0)
# Probe 60 (0.023432 -0.006666 0)
# Probe 61 (0.027253 -0.006683 0)
# Probe 62 (0.031299 -0.006635 0)
# Probe 63 (0.035554 -0.006525 0)
# Probe 64 (0.04 -0.006358 0)
# Probe 65 (0.044618 -0.006152 0)
# Probe 66 (0.049386 -0.00592 0)
# Probe 67 (0.054285 -0.005675 0)
# Probe 68 (0.059294 -0.005424 0)
# Probe 69 (0.064392 -0.005166 0)
# Probe 70 (0.069558 -0.004901 0)
# Probe 71 (0.074768 -0.004626 0)
# Probe 72 (0.08 -0.004341 0)
# Probe 73 (0.085232 -0.004046 0)
# Probe 74 (0.090442 -0.003744 0)
# Probe 75 (0.095608 -0.003438 0)
# Probe 76 (0.100706 -0.003133 0)
# Probe 77 (0.105715 -0.002835 0)
# Probe 78 (0.110614 -0.002554 0)
# Probe 79 (0.115382 -0.002288 0)
# Probe 80 (0.12 -0.002043 0)
# Probe 81 (0.124446 -0.001818 0)
# Probe 82 (0.128701 -0.00161 0)
# Probe 83 (0.132747 -0.001418 0)
# Probe 84 (0.136568 -0.00124 0)
# Probe 85 (0.140147 -0.001078 0)
# Probe 86 (0.143469 -0.000933 0)
# Probe 87 (0.146517 -0.000803 0)
# Probe 88 (0.149282 -0.00069 0)
# Probe 89 (0.15175 -0.000582 0)
# Probe 90 (0.15391 -0.000475 0)
# Probe 91 (0.155755 -0.000363 0)
# Probe 92 (0.157274 -0.00025 0)
# Probe 93 (0.158462 -0.000147 0)
# Probe 94 (0.159315 -6.7e-05 0)
# Probe 95 (0.159829 -1.8e-05 0)
# Probe 96 (0.16 0 0)
#       Probe             0             1             2             3             4             5             6             7             8             9            10            11            12            13            14            15            16            17            18            19            20            21            22            23            24            25            26            27            28            29            30            31            32            33            34            35            36            37            38            39            40            41            42            43            44            45            46            47            48            49            50            51            52            53            54            55            56            57            58            59            60            61            62            63            64            65            66            67            68            69            70            71            72            73            74            75            76            77            78            79            80            81            82            83            84            85            86            87            88            89            90            91            92            93            94            95            96
#        Time
          200             (4.15623 0.0740952 2.52063e-20)             (2.822 -1.11056 -2.50425e-19)             (4.49972 -1.57808 -1.50617e-19)             (4.8871 -1.98277 1.1479e-18)             (4.7674 -1.89164 -1.62702e-18)             (4.68445 -1.80683 -1.24549e-18)             (3.62236 -1.06123 4.17665e-18)             (3.38385 -0.944386 3.16916e-18)             (3.9819 -1.06795 3.4707e-18)             (3.9819 -1.06795 3.4707e-18)             (7.13418 -1.62606 6.79668e-18)             (5.05582 -1.0646 2.33332e-18)             (6.80152 -1.49107 0)             (10.1796 -2.20925 -2.48663e-18)             (6.87677 -1.57998 2.59995e-18)             (8.5084 -1.61419 4.02826e-18)             (7.6468 -1.41192 0)             (10.2158 -1.65499 0)             (10.2766 -1.50364 -9.72822e-19)             (10.2766 -1.50364 -9.72822e-19)             (11.5873 -1.7741 2.73569e-20)             (11.5873 -1.7741 2.73569e-20)             (13.1933 -1.45009 0)             (14.2039 -1.28863 3.3991e-19)             (21.0671 -1.8222 -2.65179e-19)             (15.1911 -0.613636 -3.51161e-21)             (15.1911 -0.613636 -3.51161e-21)             (15.3844 0.0159359 9.7098e-21)             (23.7766 0.187311 0)             (16.599 0.40148 -1.12242e-19)             (17.4323 1.55837 0)             (25.1203 1.51691 0)             (17.8931 2.5896 3.49347e-20)             (24.8194 2.97185 -2.24872e-20)             (17.1925 2.78909 -2.70834e-19)             (17.7003 4.25554 -9.88317e-21)             (17.7003 4.25554 -9.88317e-21)             (18.6243 5.78845 -1.13373e-21)             (24.2054 8.05333 5.70336e-19)             (23.875 9.09019 -2.94922e-19)             (16.1503 8.58248 0)             (20.3084 10.9465 -5.37017e-19)             (13.2855 8.37343 -7.71594e-19)             (10.7522 10.4461 1.12031e-18)             (13.0099 11.8794 -1.05725e-18)             (10.5269 10.6528 0)             (3.57565 3.83305 4.38848e-18)             (3.57565 3.83305 4.38848e-18)             (3.68144 -4.95089 6.5235e-19)             (7.35455 -10.7478 1.78364e-18)             (13.1243 -13.5504 -4.32696e-20)             (16.7983 -12.3238 -5.32857e-20)             (14.0536 -9.95867 3.48055e-19)             (15.7517 -8.23468 -5.03193e-19)             (23.1622 -7.4271 -4.60531e-19)             (23.3171 -5.60608 0)             (23.2118 -4.17589 2.05358e-19)             (23.0182 -3.17156 -1.12666e-20)             (22.0881 -1.93152 -3.1949e-19)             (22.0335 -1.46001 1.4966e-19)             (21.156 -0.787978 -6.0954e-19)             (21.1878 -0.570764 5.01433e-19)             (13.6653 -0.148089 3.05808e-20)             (14.4754 0.0209766 0)             (12.1721 0.583298 -1.33007e-18)             (17.9474 0.642329 0)             (11.7906 0.446521 -1.3123e-18)             (11.7906 0.446521 -1.3123e-18)             (11.9912 0.423666 0)             (16.5115 0.594538 2.34278e-20)             (16.0404 0.657366 -1.77318e-18)             (10.9581 0.422871 0)             (10.9581 0.422871 0)             (10.4955 0.375815 0)             (10.4955 0.375815 0)             (14.1946 0.763445 -1.04177e-18)             (13.891 0.580627 1.11738e-18)             (13.3822 0.533077 2.17831e-18)             (12.3108 0.736926 9.00047e-19)             (8.60295 0.372049 6.61514e-18)             (7.82879 0.461273 -5.40156e-19)             (11.2049 0.463964 6.26383e-18)             (10.9739 0.34258 -6.12127e-18)             (6.94125 0.167229 -6.55272e-18)             (6.49143 0.290842 4.45893e-19)             (8.77879 0.268351 0)             (8.01276 0.189732 1.21821e-18)             (7.86306 0.193111 -4.89786e-18)             (6.90634 0.339325 -3.14816e-18)             (4.3506 0.228512 -5.12311e-19)             (4.72519 0.174378 -2.426e-19)             (5.94442 0.604077 1.27296e-18)             (5.84891 0.800226 0)             (6.0004 0.86835 0)             (5.60733 0.603776 0)             (4.1326 0.418041 -2.22532e-19)             (4.15623 0.0740952 2.52063e-20)
          400             (2.32931 0.399697 6.13435e-20)             (0.885964 -0.226434 -4.51432e-19)             (2.40206 -0.656198 -2.74747e-19)             (3.96827 -1.15593 1.26495e-18)             (5.33721 -1.60531 -1.12168e-18)             (6.1192 -1.64946 -5.77828e-19)             (6.07484 -1.41799 1.29604e-18)             (5.95933 -1.54701 9.13436e-19)             (7.05016 -1.90615 8.77968e-19)             (7.05016 -1.90615 8.77968e-19)             (12.075 -2.96161 1.47709e-18)             (8.33731 -1.91635 2.95137e-19)             (10.5579 -2.31224 0)             (15.3435 -3.50775 -3.24327e-19)             (10.2309 -2.41972 3.36442e-19)             (12.311 -2.45918 2.19521e-19)             (10.7122 -2.07581 0)             (13.647 -2.44411 0)             (13.1129 -2.01342 2.31511e-19)             (13.1129 -2.01342 2.31511e-19)             (14.2083 -2.21328 4.21304e-20)             (14.2083 -2.21328 4.21304e-20)             (15.9364 -1.75639 0)             (16.631 -1.59018 -6.24023e-19)             (24.5784 -2.25945 7.59623e-19)             (17.3919 -0.784312 -3.15195e-19)             (17.3919 -0.784312 -3.15195e-19)             (17.3427 -0.00899306 1.07362e-19)             (26.7774 0.135207 0)             (18.4936 0.422167 1.0376e-18)             (19.3083 1.73663 0)             (27.8305 1.64549 0)             (19.6142 2.84463 3.82433e-19)             (27.2626 3.24678 -3.52795e-19)             (18.8094 3.05685 -1.07428e-18)             (19.3072 4.63436 -7.67687e-19)             (19.3072 4.63436 -7.67687e-19)             (20.3094 6.32518 5.42529e-21)             (26.5276 8.81161 -4.72437e-19)             (26.1788 10.0513 4.44736e-19)             (17.7113 9.42759 0)             (22.4448 12.132 -1.49194e-19)             (14.7183 9.38413 -2.33715e-19)             (12.0883 11.7897 6.59028e-19)             (14.7545 13.5908 -6.2638e-19)             (12.0553 12.589 0)             (4.08972 5.27103 3.2127e-18)             (4.08972 5.27103 3.2127e-18)             (3.93998 -3.86812 6.13815e-19)             (7.60382 -10.2348 1.59094e-18)             (13.702 -13.6844 -3.41316e-20)             (17.7469 -12.8474 -3.74139e-20)             (14.9048 -10.4603 1.76345e-19)             (16.9481 -8.69202 -5.21994e-20)             (25.3752 -8.01875 -5.76533e-21)             (25.713 -6.1083 0)             (25.7882 -4.55568 -7.77538e-21)             (25.7411 -3.487 -9.02791e-21)             (24.8814 -2.09798 7.58608e-20)             (24.9797 -1.59945 -4.85719e-20)             (24.1726 -0.815714 -1.02587e-20)             (24.3722 -0.588279 -9.7039e-20)             (15.6447 -0.143245 -4.50101e-21)             (16.8938 0.0573604 0)             (14.2922 0.706647 -3.5941e-19)             (21.2694 0.825219 0)             (14.0959 0.562622 -3.14181e-19)             (14.0959 0.562622 -3.14181e-19)             (14.4694 0.576979 0)             (20.276 0.792352 2.4256e-20)             (19.9006 0.91153 -5.26519e-19)             (13.7194 0.588404 0)             (13.7194 0.588404 0)             (13.4289 0.540884 0)             (13.4289 0.540884 0)             (18.6138 1.10953 -3.12778e-19)             (18.4756 0.909015 4.03891e-19)             (18.0263 0.8453 6.41768e-19)             (16.9179 1.15087 3.184e-19)             (12.1419 0.539961 2.17241e-18)             (11.2656 0.770274 -1.55265e-19)             (16.4229 0.834076 1.92956e-18)             (16.5426 0.791839 -1.93351e-18)             (10.9387 0.313422 -2.02805e-18)             (10.5817 0.634333 1.35829e-19)             (14.6504 0.658608 0)             (14.0437 0.595438 3.45653e-19)             (14.4726 0.685248 -1.35363e-18)             (13.1947 0.887733 -8.04081e-19)             (8.66375 0.571626 -1.38746e-19)             (9.57411 0.443435 -5.88461e-20)             (11.6781 0.728838 3.37789e-19)             (10.8694 1.27002 0)             (9.98344 0.973128 0)             (7.57463 0.66531 0)             (3.96113 0.289746 -1.44042e-19)             (2.32931 0.399697 6.13435e-20)
          600             (2.47855 0.359036 2.45757e-20)             (1.10044 -0.282171 -1.56669e-19)             (3.11727 -0.84726 -8.62628e-20)             (4.99968 -1.4967 3.58482e-19)             (6.64373 -2.01717 -3.05159e-19)             (7.5721 -2.0934 -1.32399e-19)             (7.27673 -1.78479 1.56227e-19)             (7.03635 -1.89697 1.13954e-19)             (8.17886 -2.24711 3.08888e-20)             (8.17886 -2.24711 3.08888e-20)             (13.5649 -3.44914 -2.92331e-19)             (9.26586 -2.19798 -3.66335e-19)             (11.4711 -2.51214 0)             (16.5016 -3.83881 4.80229e-19)             (10.9678 -2.61485 -4.98782e-19)             (13.0831 -2.64167 -1.25035e-18)             (11.2904 -2.21214 0)             (14.1866 -2.6101 0)             (13.4903 -2.09266 7.43358e-19)             (13.4903 -2.09266 7.43358e-19)             (14.4879 -2.26335 4.48433e-20)             (14.4879 -2.26335 4.48433e-20)             (16.2039 -1.7875 0)             (16.809 -1.62243 -1.07476e-18)             (24.8111 -2.30595 1.24482e-18)             (17.507 -0.805769 -4.62407e-19)             (17.507 -0.805769 -4.62407e-19)             (17.4165 -0.0132089 1.54769e-19)             (26.8723 0.121752 0)             (18.5373 0.420055 1.62254e-18)             (19.3429 1.73866 0)             (27.8679 1.64065 0)             (19.6294 2.84621 5.55177e-19)             (27.2738 3.24335 -5.17386e-19)             (18.8136 3.05417 -1.46131e-18)             (19.2986 4.6314 -1.13907e-18)             (19.2986 4.6314 -1.13907e-18)             (20.2939 6.31997 8.59018e-21)             (26.4915 8.79588 -9.81391e-19)             (26.1347 10.0267 7.86907e-19)             (17.6703 9.40071 0)             (22.3837 12.0916 3.88282e-20)             (14.6659 9.33841 5.09936e-21)             (12.0269 11.7254 4.57088e-19)             (14.6688 13.4959 -4.34334e-19)             (11.9736 12.4571 0)             (4.05664 5.11773 2.78166e-18)             (4.05664 5.11773 2.78166e-18)             (3.95807 -4.09288 5.2055e-19)             (7.68655 -10.4795 1.27024e-18)             (13.8333 -13.8848 -2.21856e-20)             (17.895 -12.9738 -2.13196e-20)             (15.0087 -10.5453 2.99734e-20)             (17.0514 -8.76139 2.76025e-19)             (25.5079 -8.0701 3.09834e-19)             (25.833 -6.14261 0)             (25.9024 -4.57703 -1.41747e-19)             (25.8482 -3.50431 -9.23696e-21)             (24.9848 -2.10611 3.10661e-19)             (25.0818 -1.60671 -1.63818e-19)             (24.2771 -0.81697 3.4148e-19)             (24.4799 -0.589543 -4.35912e-19)             (15.7089 -0.143084 -2.41467e-20)             (16.9771 0.0590618 0)             (14.3682 0.711444 1.86973e-19)             (21.3911 0.833732 0)             (14.187 0.568963 2.20967e-19)             (14.187 0.568963 2.20967e-19)             (14.5746 0.587322 0)             (20.4531 0.808641 2.40696e-20)             (20.0964 0.93179 1.14353e-19)             (13.882 0.60381 0)             (13.882 0.60381 0)             (13.6328 0.56234 0)             (13.6328 0.56234 0)             (18.9661 1.15493 2.99941e-20)             (18.8731 0.955783 6.8781e-20)             (18.4673 0.896387 -5.21409e-20)             (17.4021 1.20787 6.06776e-20)             (12.5716 0.558057 2.98748e-19)             (11.6929 0.822934 -3.46759e-21)             (17.1028 0.902602 1.90487e-19)             (17.3167 0.880829 -3.31443e-19)             (11.5674 0.337218 -3.96492e-19)             (11.2342 0.701535 3.17561e-20)             (15.6193 0.739112 0)             (15.0883 0.679012 7.7102e-20)             (15.6562 0.791406 -2.58121e-19)             (14.339 0.997395 -1.5136e-19)             (9.4697 0.642708 -4.05234e-20)             (10.4939 0.505575 -1.19861e-20)             (12.8355 0.778996 7.78399e-20)             (11.9043 1.36499 0)             (10.8089 0.98591 0)             (7.97915 0.652501 0)             (4.05699 0.288682 -5.64393e-20)             (2.47855 0.359036 2.45757e-20)
          759             (2.47954 0.363014 2.13415e-20)             (1.09607 -0.280602 -1.35762e-19)             (3.10455 -0.842498 -7.47185e-20)             (4.99057 -1.4909 3.03012e-19)             (6.6424 -2.01441 -2.51293e-19)             (7.5739 -2.09105 -1.02933e-19)             (7.28343 -1.78494 7.92889e-20)             (7.04286 -1.89834 5.836e-20)             (8.18668 -2.24944 -3.0441e-20)             (8.18668 -2.24944 -3.0441e-20)             (13.5777 -3.45282 -4.26737e-19)             (9.27321 -2.19983 -4.17507e-19)             (11.4795 -2.51386 0)             (16.5131 -3.84205 5.48559e-19)             (10.9746 -2.61676 -5.69787e-19)             (13.0907 -2.6435 -1.37991e-18)             (11.2956 -2.21336 0)             (14.192 -2.61168 0)             (13.494 -2.09343 7.93506e-19)             (13.494 -2.09343 7.93506e-19)             (14.4907 -2.26386 4.48551e-20)             (14.4907 -2.26386 4.48551e-20)             (16.2067 -1.78776 0)             (16.8109 -1.62274 -1.12278e-18)             (24.8137 -2.30641 1.29735e-18)             (17.5084 -0.805959 -4.7851e-19)             (17.5084 -0.805959 -4.7851e-19)             (17.4178 -0.0131938 1.60055e-19)             (26.8741 0.121695 0)             (18.5385 0.420117 1.68866e-18)             (19.3443 1.73885 0)             (27.8698 1.64076 0)             (19.6309 2.8465 5.75011e-19)             (27.2759 3.24364 -5.36341e-19)             (18.8152 3.05446 -1.50605e-18)             (19.3005 4.63195 -1.18217e-18)             (19.3005 4.63195 -1.18217e-18)             (20.2962 6.32078 8.96009e-21)             (26.4944 8.79697 -1.04109e-18)             (26.1378 10.028 8.27295e-19)             (17.6727 9.40212 0)             (22.3867 12.0933 6.10692e-20)             (14.6681 9.33996 3.36191e-20)             (12.0289 11.7276 4.32768e-19)             (14.6712 13.4984 -4.11226e-19)             (11.9757 12.4596 0)             (4.05746 5.11927 2.72658e-18)             (4.05746 5.11927 2.72658e-18)             (3.95866 -4.09305 5.11145e-19)             (7.68788 -10.4807 1.2386e-18)             (13.8353 -13.8863 -2.10223e-20)             (17.8974 -12.9753 -1.97315e-20)             (15.0104 -10.5463 1.54354e-20)             (17.0537 -8.76243 3.08915e-19)             (25.5115 -8.0712 3.41672e-19)             (25.8364 -6.14345 0)             (25.9059 -4.57756 -1.55437e-19)             (25.8518 -3.50478 -9.23969e-21)             (24.9886 -2.10634 3.34695e-19)             (25.0857 -1.60693 -1.75618e-19)             (24.2814 -0.816983 3.77551e-19)             (24.4843 -0.589603 -4.70621e-19)             (15.7112 -0.143009 -2.61593e-20)             (16.9803 0.059214 0)             (14.371 0.711657 2.42831e-19)             (21.3959 0.834034 0)             (14.1903 0.569082 2.75314e-19)             (14.1903 0.569082 2.75314e-19)             (14.5782 0.587641 0)             (20.4588 0.808977 2.40495e-20)             (20.1024 0.932206 1.78624e-19)             (13.8862 0.604145 0)             (13.8862 0.604145 0)             (13.6376 0.562658 0)             (13.6376 0.562658 0)             (18.9737 1.1557 6.28874e-20)             (18.8813 0.956441 3.64069e-20)             (18.4758 0.897112 -1.1713e-19)             (17.4108 1.20875 3.68382e-20)             (12.5786 0.558441 1.29872e-19)             (11.6998 0.823658 9.75732e-21)             (17.1137 0.903556 3.87881e-20)             (17.3287 0.881926 -1.94633e-19)             (11.5764 0.337571 -2.611e-19)             (11.2436 0.702459 2.33376e-20)             (15.6332 0.740235 0)             (15.1031 0.680185 5.56592e-20)             (15.6731 0.793137 -1.73391e-19)             (14.3557 0.999303 -1.02e-19)             (9.48145 0.643967 -3.31263e-20)             (10.5081 0.506917 -8.51974e-21)             (12.8564 0.781076 5.85227e-20)             (11.9251 1.36837 0)             (10.8298 0.988287 0)             (7.99567 0.654233 0)             (4.06748 0.290165 -4.85383e-20)             (2.47954 0.363014 2.13415e-20)
