/*--------------------------------*- C++ -*----------------------------------*\
| =========                 |                                                 |
| \\      /  F ield         | OpenFOAM: The Open Source CFD Toolbox           |
|  \\    /   O peration     | Version:  4.0                                   |
|   \\  /    A nd           | Web:      www.OpenFOAM.org                      |
|    \\/     M anipulation  |                                                 |
\*---------------------------------------------------------------------------*/
FoamFile
{
    version     2.0;
    format      ascii;
    class       volScalarField;
    location    "400";
    object      nut;
}
// * * * * * * * * * * * * * * * * * * * * * * * * * * * * * * * * * * * * * //

dimensions      [0 2 -1 0 0 0 0];

internalField   nonuniform List<scalar> 
14558
(
0.0302276
0.0356315
0.0291174
0.0407238
0.0762469
0.0178443
0.0102751
0.00657035
0.00357596
0.00887114
0.0274923
0.0097813
0.105207
0.00440124
0.116977
0.0146639
0.0170688
0.0270112
0.117013
0.00134916
0.0879917
0.0220602
0.116889
0.0899093
0.0266662
0.113358
0.0285885
0.0155592
0.0100563
0.0219411
0.00237476
0.0253466
0.0777007
0.083995
0.0259649
0.0457562
0.114725
0.0069833
0.0492383
0.0649778
0.0335655
0.0210825
0.0218736
0.0160171
0.0183756
0.018091
0.1149
0.00543221
0.00176015
0.023501
0.0253788
0.0285396
0.00174849
0.0471839
0.00187272
0.048723
0.101823
0.0104222
0.051845
0.0110154
0.0256347
0.0105426
0.108463
0.00948064
0.0208431
0.070234
0.104947
0.0124347
0.00306305
0.0748108
0.00302758
0.0293806
0.027701
0.0856975
0.00606933
0.0413463
0.00345682
0.01778
0.052631
0.00405862
0.015972
0.0259157
0.061579
0.0652253
0.0865307
0.084928
0.0486729
0.0301316
0.0986657
0.0275661
0.0144205
0.00257431
0.102821
0.0269183
0.0757889
0.00120527
0.0643257
0.10936
0.109886
0.0524426
0.0119124
0.018055
0.0785588
0.0196692
0.0304702
0.0944084
0.0101023
0.014896
0.0755981
0.111873
0.114757
0.022974
0.126952
0.120123
0.0178594
0.0667105
0.0456595
0.045623
0.00660479
0.00607206
0.0291555
0.0182696
0.0963847
0.108403
0.00929498
0.0970619
0.0232926
0.00430325
0.0275169
0.0140541
0.0173475
0.056909
0.104122
0.0765552
0.118129
0.00160893
0.00493834
0.0270102
0.0164112
0.0184777
0.0512278
0.0328773
0.00561638
0.110338
0.0234585
0.0552031
0.0611694
0.00240883
0.065371
0.0950342
0.0644704
0.00755492
0.0392769
0.0193027
0.00154634
0.118115
0.014869
0.0020436
0.0706394
0.00662771
0.0769293
0.0246088
0.0227301
0.0605082
0.0236768
0.00193604
0.111406
0.0166623
0.0654292
0.0627482
0.134931
0.00634771
0.00779155
0.000452471
0.0032642
0.0429058
0.0973817
0.00246772
0.0934852
0.0225477
0.0554273
0.109372
0.0189611
0.0422505
0.0640621
0.000513916
0.0868283
0.0345214
0.0027473
0.0258358
0.000892668
0.0590394
0.0516335
0.105972
0.0438184
0.00525046
0.00263785
0.0728998
0.00332623
0.00244244
0.11123
0.105925
0.00508099
0.0689082
0.0433399
0.00241747
0.0802716
0.0251514
0.0259316
0.0277374
0.0281525
0.101162
0.111896
0.0638677
0.0691296
0.0979992
0.0566971
0.00371812
0.000827417
0.00306821
0.0316647
0.0420928
0.028308
0.0300766
0.0849563
0.025617
0.0103826
0.00217018
0.00374903
0.127808
0.0855491
0.0639216
0.0463341
0.0205113
0.0277564
0.00561269
0.0176674
0.00175517
0.037379
0.0107442
0.105938
0.0719448
0.0146374
0.0213294
0.0451589
0.066554
0.0970949
0.015362
0.00514428
0.00967459
0.00237644
0.111139
0.102972
0.0318837
0.0226021
0.0057469
0.0638165
0.00519469
0.113525
0.134509
0.135479
0.107724
0.0168108
0.0357071
0.0858018
0.0176666
0.0144093
0.10654
0.0107361
0.0542228
0.041702
0.0676154
0.00868289
0.002124
0.121993
0.00479901
0.0287568
0.00439748
0.00479304
0.0162304
0.0930469
0.0493758
0.110319
0.0421328
0.0456601
0.0405727
0.022772
0.0174673
0.0406963
0.0313018
0.0227941
0.121583
0.0669826
0.0170202
0.00126895
0.0466158
0.0104525
0.0213603
0.0731624
0.115829
0.00490813
0.0303011
0.00397607
0.00263993
0.0816095
0.0407258
0.0591098
0.110115
0.0605845
0.0402801
0.0289112
0.0333899
0.0295648
0.106633
0.00793231
0.016728
0.0644956
0.0843146
0.0986591
0.0692981
0.00113013
0.0946111
0.00573804
0.000498204
0.00580167
0.0370224
0.0564392
0.00256607
0.109661
0.0286244
0.106879
0.0524134
0.000284357
0.0163844
0.00770316
0.0489183
0.0711622
0.020719
0.0142087
0.0132993
0.00695302
0.0598423
0.0721215
0.100634
0.016738
0.065967
0.100714
0.00954715
0.0275352
0.00259191
0.0389114
0.00317122
0.00320169
0.0115762
0.00748544
0.0695356
0.0486583
0.0678445
0.00689651
0.00555782
0.12057
0.0238759
0.0678885
0.0506228
0.00292675
0.135749
0.0513682
0.0780702
0.00229305
0.0101597
0.05364
0.0994543
0.0262596
0.029171
0.0219162
0.0624968
0.0937992
0.0153635
0.0295163
0.0348617
0.0770784
0.0318007
0.0588048
0.0866555
0.125451
0.011338
0.0292195
0.0467948
0.00313635
0.0157235
0.064245
0.0252361
0.0712591
0.00347962
0.0990794
0.0268838
0.055492
0.00484077
0.00815266
0.0910754
0.00485976
0.00462301
0.119484
0.0191207
0.028232
0.00128093
0.00717388
0.0701392
0.0377461
0.0220239
0.0957079
0.00788065
0.0376619
0.0682707
0.0321931
0.00959117
0.0726919
0.015752
0.0795014
0.0305444
0.0971705
0.00510377
0.0262749
0.0253946
0.0340013
0.0328133
0.0244075
0.0934634
0.0200452
0.00819325
0.0592484
0.040924
0.0202017
0.00225054
0.0252093
0.0964417
0.0692126
0.0707725
0.0728483
0.0525134
0.0316144
0.0114233
0.038301
0.0218959
0.00849173
0.0719643
0.0993931
0.0927413
0.0576775
0.0629594
0.0166337
0.0442322
0.109797
0.0645498
0.0428749
0.0197966
0.112313
0.0165766
0.00745477
0.0723013
0.0344423
0.0805388
0.0405507
0.0281807
0.0984027
0.00140822
0.0680301
0.00353152
0.0944259
0.0541038
0.0306268
0.00773448
0.0352043
0.0241975
0.0701682
0.116426
0.0340771
0.00643408
0.0828432
0.0688026
0.00836288
0.0616761
0.0447454
0.0324325
0.0370997
0.0142002
0.000385241
0.00222956
0.0279271
0.026542
0.00285284
0.00311077
0.0343626
0.0788928
0.0608602
0.00418875
0.0579758
0.00463243
0.0416023
0.0127294
0.00516303
0.0572264
0.0140746
0.0456121
0.0394188
0.0062321
0.0258185
0.0976001
0.0713592
0.0362914
0.0217344
0.0668245
0.00985699
0.0421103
0.102774
0.0497836
0.0863038
0.0829579
0.0340069
0.0257111
0.132723
0.024389
0.00448261
0.0452469
0.00173474
0.013705
0.00476575
0.00473889
0.0396286
0.0660029
0.0860339
0.031387
0.0404668
0.0428802
0.0309605
0.0525607
0.066424
0.089611
0.0366531
0.000799311
0.00400675
0.00172244
0.012786
0.0450802
0.00432194
0.00574014
0.00746897
0.103697
0.00408254
0.116442
0.0726405
0.00531358
0.00502741
0.040738
0.024357
0.0167167
0.0531277
0.0263029
0.00215443
0.0880136
0.0144413
0.117375
0.00559881
0.0670458
0.0649894
0.0151902
0.0338906
0.0506116
0.0276711
0.0548021
0.134511
0.0503163
0.029771
0.0709279
0.0344361
0.0338957
0.0186467
0.0835359
0.0375637
0.0186221
0.0701306
0.0891285
0.0126367
0.027831
0.050504
0.0884038
0.0101616
0.015417
0.0836002
0.0904487
0.107942
0.0211459
0.00997798
0.0219195
0.0175931
0.0489691
0.0218552
0.0255177
0.0298335
0.0613457
0.00850616
0.0277224
0.014731
0.00569454
0.0393095
0.0180565
0.00439332
0.123859
0.0342896
0.100358
0.0165267
0.0026922
0.094001
0.0919047
0.0333528
0.0863044
0.108752
0.0249534
0.0609487
0.0678095
0.0322664
0.00282404
0.0951928
0.0906996
0.0670247
0.115032
0.0499632
0.0303009
0.0141703
0.001438
0.113862
0.0272792
0.0861081
0.0597224
0.117322
0.0205002
0.137376
0.0851929
0.0290109
0.0116538
0.00223414
0.00927072
0.0306535
0.00185525
0.0672632
0.0304478
0.0243735
0.0403861
0.124787
0.0147895
0.0879266
0.0148936
0.0751853
0.00423622
0.00555338
0.0942596
0.00137017
0.0253533
0.00293658
0.0441855
0.0597039
0.0653206
0.000778807
0.10678
0.0397114
0.050489
0.0317425
0.134726
0.0495762
0.0099165
0.0645806
0.00979655
0.0085499
0.0916286
0.103143
0.00706842
0.0233462
0.0167376
0.0431371
0.00653391
0.104759
0.00493347
0.00247182
0.0649605
0.0941531
3.71073e-05
0.0164701
0.0808053
0.0535335
0.000944913
0.000609916
0.0266019
0.00220782
0.00407103
0.00357766
0.0358909
0.0246747
0.116864
0.0966019
0.00274522
0.0551367
0.0269523
0.00049249
0.0621129
0.0761008
0.00711136
0.05984
0.0934077
0.0295973
0.0247038
0.0884789
0.0701812
0.0248298
0.0100361
0.00498237
0.0133446
0.0599693
0.0199226
0.0153055
0.0204838
0.0062267
0.00373178
0.0973492
0.113284
0.0973554
0.0573678
0.00619123
0.0125543
0.117075
0.0787499
0.00985793
0.00898028
0.0222309
0.0037322
0.0580793
0.00967365
0.0596057
0.0746992
0.0308099
0.00212619
0.0503789
0.0375613
0.0154743
0.0212683
0.0397938
0.0251798
0.0834122
0.030002
0.011418
0.00301658
0.0115734
0.0256615
0.026168
0.0057626
0.010442
0.00272922
0.0546706
0.0275043
0.0483879
0.0270516
0.0635502
0.00910888
0.0300225
0.0263993
0.00683723
0.00201627
0.071748
0.0600341
0.0818704
0.109574
0.0168462
0.0417015
0.00363541
0.0710234
0.0202322
0.0142598
0.0282556
0.0155165
0.00309204
0.117543
0.0599939
0.135229
0.0889025
0.00437448
0.0351815
0.0113158
0.0243289
0.0198846
0.0116637
0.0934388
0.0259914
0.0903562
0.0397502
0.00402351
0.121363
0.00470318
0.0906803
0.019454
0.0235947
0.00552022
0.0840102
0.0300641
0.0086762
0.0820946
0.0194768
0.0218157
0.0150083
0.00956324
0.000231869
0.0283121
0.00343265
0.0352917
0.0149984
0.0978596
0.0252185
0.0256975
0.000332673
0.0214828
0.107636
0.0588566
0.00214607
0.11681
0.00792883
0.102872
0.012353
0.0298806
0.0944794
0.00443877
0.0220444
0.0766413
0.0424897
0.00516011
0.0591574
0.0593399
0.0198031
0.000312166
0.0104905
0.0693504
0.0306662
0.00841804
0.0137344
0.0015279
0.00702673
0.0792113
0.0539044
0.0492129
0.112145
0.00858181
0.0924271
0.0873792
0.00913603
0.0295007
0.00185958
0.100969
0.055333
0.0199713
0.00034209
0.0166663
0.0686449
0.0249851
0.00472209
0.0660648
0.0924357
0.0774213
0.00567282
0.00670521
0.00430343
0.00852877
0.00943359
0.0653923
0.102496
0.0621115
0.0783773
0.00668428
0.0143102
0.00666476
0.00513028
0.013162
0.0429623
0.0145819
0.0764884
0.0210788
0.118094
0.0658397
0.00478482
0.00290681
0.0193649
0.126906
0.00432299
0.0165694
0.051525
0.0774887
0.0589555
0.0273845
0.0362636
0.0136291
0.0564485
0.0033934
0.020537
0.00294005
0.0170909
0.00422031
0.084615
0.0807818
0.056753
0.00732115
0.116972
0.0732767
0.0244299
0.0203069
0.105462
0.0140144
0.00268546
0.00706374
0.00311375
0.0659077
0.103568
0.0228173
0.020234
0.00319963
0.0393985
0.0183717
0.0128948
0.00919117
0.0403259
0.0082972
0.00613606
0.086445
0.016525
0.0153354
0.0811939
0.114641
0.00704236
0.0299921
0.0263396
0.0353209
0.0559219
0.122883
0.00526396
0.0383631
0.0428603
0.0309983
0.0726989
0.0462284
0.0357723
0.0275627
0.0303407
0.00215819
0.00218101
0.093943
0.0212215
0.113064
0.00205156
0.0684069
0.00226074
0.0136971
0.0358123
0.000429909
0.0262471
0.032132
0.113885
0.042453
0.0339882
0.0276634
0.0270843
0.0964866
0.00445458
0.0033535
0.0549186
0.0372836
0.0198305
0.00269657
0.0178832
0.0672105
0.00230295
0.103417
0.0248806
0.074908
0.0484104
0.0642983
0.0189602
0.00645876
0.0747803
0.0261528
0.0253605
0.0242667
0.015397
0.0687108
0.113752
0.00486522
0.0545125
0.0681073
0.027506
0.00540365
0.0607754
0.0178718
0.121549
0.00034317
0.0115836
0.117392
0.030245
0.0672195
0.0173038
0.0255044
0.0350343
0.0156958
0.0996615
0.0514834
0.0217153
0.0635993
0.105071
0.00151923
0.0119221
0.0590384
0.0701258
0.0544471
0.0257197
0.00779607
0.0853174
0.0235163
0.0588983
0.0353
0.0373473
0.0554661
0.0105937
0.0319002
0.0337494
0.0947867
0.0278942
0.0320251
0.113345
0.0191043
0.0124544
0.0380002
0.0750682
0.0626735
0.000480805
0.0260083
0.0559326
0.0155018
0.0312314
0.0602661
0.0118838
0.00089452
0.00847183
0.0112682
0.0249372
0.0511515
0.0376554
0.0574748
0.0539899
0.00827676
0.0136627
0.0138463
0.0509273
0.076292
0.0486959
0.0122665
0.0169776
0.110884
0.0327694
0.0222478
0.107201
0.00293283
0.0598542
0.0302478
0.0273301
0.13015
0.0996313
0.0312608
0.0015422
0.0805824
0.0832809
0.0073687
0.109044
0.0114951
0.00275157
0.0618845
0.0423556
0.0791457
0.0498851
0.110398
0.00582183
0.0207272
0.0296323
0.102038
0.0266208
0.00434588
0.0234687
0.0349337
0.0442507
0.0564138
0.00383556
0.102133
0.0939476
0.0187601
0.109022
0.127837
0.0455125
0.0188697
0.0145479
0.107617
0.110738
0.0361525
0.00202025
0.0402294
0.0583012
0.0217921
0.00691266
0.0840537
0.00216365
0.087426
0.0255015
0.0420076
0.0119398
0.072954
0.0371634
0.00719399
0.119298
0.00463496
0.0204903
0.0117821
0.0144737
0.136133
0.0151107
0.0244556
0.0406484
0.0144716
0.0147567
0.0260019
0.0863052
0.109561
0.0082815
0.000831919
0.0540799
0.0329256
0.0495333
0.00798978
0.0848297
0.0673534
0.047771
0.0339564
0.0175819
0.106182
0.0538427
0.0456986
6.13022e-05
0.030238
0.0917849
0.0277992
0.00724882
0.00536757
0.0103329
0.0263187
0.0116264
0.078663
0.00143001
0.0363981
0.117706
0.0112042
0.0283045
0.0479303
0.0646617
0.0674695
0.0412108
0.0060672
0.034751
0.0451818
0.0746735
0.0064354
0.0062935
0.00555494
0.0107501
0.00465494
0.00314989
0.0560508
0.0408221
0.0409156
0.0281227
0.123184
0.0776404
0.133629
0.0687543
0.000578245
0.0445046
0.134931
0.0662468
0.0031982
0.0372179
0.00318021
0.0022823
0.00983731
0.0976505
0.0101977
0.025674
0.0261995
0.071703
0.00452446
0.00102679
0.011887
0.0036368
0.0818571
0.00578376
0.0795611
0.0686413
0.081433
0.00522628
0.027289
0.00379766
0.055795
0.0259613
0.0232716
0.0374926
0.0535921
0.00394865
0.0673143
0.00868251
0.0305279
0.0217307
0.0156059
0.0242213
0.111006
0.00993236
0.0826163
0.00486654
0.0625377
0.0669886
0.00303519
0.0109381
0.0567624
0.0254934
0.0136502
0.00692435
0.0464756
0.0300859
0.0447621
0.0319185
0.0457564
0.0377974
0.0423675
0.06693
0.00770471
0.00686135
0.00759232
0.118441
0.0669654
0.106521
0.0253278
0.00404011
0.00728211
0.0159785
0.00181785
0.00676259
0.0276684
0.046506
0.00600429
0.00343668
0.024899
0.0119008
0.0358736
0.0355281
0.00484985
0.0559629
0.0231381
0.103528
0.00148078
0.121434
0.0342538
0.00135861
0.008323
0.0035804
0.0403304
0.0604702
0.0187712
0.0317964
0.0826489
0.0956637
0.031428
0.00797647
0.0561048
0.0132057
0.0635579
0.0071482
0.0892558
0.00402563
0.0137955
0.095526
0.0148458
0.00380806
0.0861533
0.0538394
0.0216401
0.0239949
0.0323772
0.117309
0.0386561
0.0346917
0.00773216
0.0152692
0.0155557
0.0567257
0.00223437
0.00232183
0.0228174
0.0188288
0.0487605
0.119315
0.00898671
0.013967
0.0649175
0.0111333
0.0531738
0.00472264
0.00192828
0.00324051
0.0381381
0.030236
0.137739
0.0379374
0.00253075
0.0745524
0.0521348
0.00852027
0.0781847
0.00237004
0.0782322
0.0476538
0.0428001
0.112158
0.0139164
0.0299283
0.0418147
0.0794764
0.0675637
0.00463041
0.000619397
0.00150206
0.0621084
0.0879028
0.0385945
0.106718
0.0765824
0.0811589
0.0939974
0.0016163
0.0646791
0.0465478
0.0651923
0.131717
0.0201063
0.0291825
0.0280756
0.0534166
0.0121072
0.064153
0.00285403
0.0412662
0.022943
0.0740794
0.12878
0.0252486
0.0379912
0.0464566
0.00447385
0.022102
0.00782656
0.0126153
0.0246645
0.00672649
0.00539061
0.0145552
0.0129655
0.0374279
0.0431859
0.0826163
0.0651888
0.00985477
0.112591
0.00634221
0.0263692
0.0345966
3.81556e-05
0.0202913
0.12306
0.0781008
0.0524144
0.0270971
0.0331494
0.00689677
0.0500059
0.0379233
0.00729605
0.0383041
0.0673129
0.0297657
0.0748534
0.071394
0.0986426
0.0805533
0.00715739
0.0869837
0.0322372
0.0408648
0.00599141
0.0192293
0.0261657
0.0331852
0.0292724
0.0314227
0.0299491
0.0782221
0.00329201
0.0180752
0.0936944
0.0359041
0.00676492
0.0666827
0.00460319
0.00436557
0.0284167
0.0528048
0.0872971
0.00452998
0.0139377
0.0145329
0.0112959
0.0571412
0.0215689
0.0198996
0.00324547
0.00445257
0.0406025
0.000395467
0.0767648
0.00482397
0.0629084
0.01281
0.0402057
0.134747
0.00115136
0.111913
0.0070521
0.0612124
0.00463499
0.116624
0.0312105
0.0532393
0.0277854
0.02047
0.0121854
0.097397
0.0529135
0.0180949
0.0372251
0.0639283
0.0182232
0.0380432
0.0606955
0.0163054
0.131859
0.0375384
0.0311216
0.00627704
0.0787684
0.0499819
0.122947
0.00639465
0.0205717
0.011378
0.110548
0.0495153
0.00486227
0.0388593
0.0176642
0.0156214
0.00376029
0.00160694
0.0159784
0.0533501
0.0560312
0.000987063
1.06905e-07
0.00215645
0.015825
0.00358326
0.016369
0.0976497
0.000388583
0.00920451
0.000695685
0.033297
0.0885493
0.0673849
0.0254688
0.0494032
0.0551295
0.0121399
0.00721422
0.00776008
0.069755
0.0146218
0.00656563
0.0300548
0.0372889
0.0279453
0.0413603
0.0977644
0.0473001
0.0717218
0.0563313
0.0066621
0.00500447
0.0753376
0.117721
0.105069
0.000696201
0.013
0.0907276
0.00765894
0.0343304
0.00865838
0.020533
0.0831554
0.057968
0.00382002
0.00539051
0.00673704
0.0179538
0.0300885
0.00342816
0.00516026
0.0205077
0.0336932
0.0113633
0.048395
0.00371006
0.0319695
0.0446658
0.0208676
0.0161954
0.00289482
0.0132091
0.00441251
0.0443867
0.0152686
0.0800141
0.0449247
0.0754425
0.0333222
0.0594846
0.0520966
0.0192692
0.0054126
0.0145973
0.0531328
0.0116867
0.0404802
0.0044471
0.0454817
0.00898649
0.115817
0.0737078
1.12999e-06
0.00170606
0.00919289
0.0659668
0.0926003
0.00455495
0.00083346
0.00123763
0.01777
0.114216
0.0120414
0.0178106
0.122637
0.102831
0.032847
0.0786132
0.00088228
0.00631477
0.124269
0.117527
0.100411
0.100684
0.0521003
0.0760612
0.0761924
0.112848
0.025059
0.105367
0.0154898
0.0286337
0.0129429
0.0322697
0.0273786
0.0134198
0.0962802
0.0088242
0.110246
0.0455015
0.00254385
0.0356282
0.0487804
0.0575058
0.0435087
0.0960992
0.115826
0.0891155
0.0318538
0.00161893
0.0554077
0.00261319
0.00428196
0.0117834
0.0955789
0.0218077
0.0243808
0.0362108
0.103733
0.0546505
0.0402341
0.0112104
0.0518762
0.0127289
0.00131961
0.0446416
0.0430267
0.067454
0.0336513
0.0154157
0.112373
0.0447403
0.124588
0.0717326
0.0335545
0.00599018
0.115612
0.0035423
0.0548192
0.019992
0.0294138
0.127992
0.0025544
0.032995
0.00975321
0.0250395
0.0100242
0.0636734
0.0492839
0.00714691
0.00430675
0.112289
0.00483286
0.0345885
0.112961
0.0423561
0.0636479
0.0330727
0.0736563
0.056261
0.0718442
0.0147743
0.0673245
0.0258548
0.0113028
0.0564309
0.053325
0.0374718
0.0964025
0.0315707
0.0167988
0.00752695
0.0124599
0.0707658
0.0617404
0.0342051
0.00535534
0.00441509
0.0817746
0.0943197
0.000273562
0.0319948
0.0408396
0.0170072
0.0493274
0.097191
0.00790134
0.0252828
0.042443
0.0681453
0.0491514
0.114611
0.0564971
0.104793
0.0386575
0.00299913
0.0117509
0.00524139
0.0229771
0.119658
0.0207143
0.0443862
0.0645508
0.0250097
0.022845
0.025838
0.0594562
0.0256845
0.0381835
0.0538778
0.106203
0.0344747
0.0183598
0.0286763
0.00984105
0.010053
0.0786235
0.048597
0.0848669
0.0277721
0.0663906
0.0367776
0.00798769
0.0964565
0.0699659
0.107343
0.0211942
0.0311245
0.000239334
0.0703791
0.0936397
0.0123425
0.0451565
0.00101567
0.00431519
0.102934
0.0157429
0.0209226
0.0520503
0.0282719
0.000832114
0.0173923
0.0951762
0.00580731
0.0256848
0.056651
0.0420872
0.0172561
0.0691182
0.0719834
0.108374
0.0267083
0.0171924
0.00850933
0.0596157
0.03486
0.0297673
0.00133723
0.00679668
0.0277121
0.0943574
0.0311203
0.010057
0.0133836
0.00437196
0.0642707
0.0253355
0.0187493
0.0194254
0.00554465
0.00479811
0.0279182
0.0257177
0.0268788
0.0237865
0.136146
0.00126679
0.103559
0.0609165
0.111939
0.0271745
0.0284138
0.0759161
0.0264088
0.0833787
0.116276
0.0300049
0.0196954
0.00204593
0.117214
0.0426058
0.0130322
0.00921976
0.0742724
0.0120239
0.116213
0.0591202
0.0543328
0.0128876
0.0805073
0.00338249
0.00553551
0.0712437
0.123002
0.0118737
0.0515213
0.0282051
0.0120236
0.000312332
0.0114096
0.0086954
0.000303576
0.00670546
0.0379112
0.0188384
0.0256493
0.00988741
0.0771185
0.0198113
0.0198861
0.0357665
0.0333532
0.0746524
0.109544
0.091789
0.132618
0.00834456
0.0127141
0.0216549
0.0203801
0.0421239
0.0933648
0.00870934
0.00822237
0.051679
0.0110932
0.0207754
0.0318463
0.00211097
0.0809712
0.00775296
0.0477049
0.0698871
0.05045
0.084917
0.0312696
0.0272055
0.0278111
0.025511
0.107422
0.0373939
0.0710588
0.0039891
0.016582
0.0474862
0.00170119
0.00372749
0.00420693
0.0700208
0.0276859
0.0523919
0.0135513
0.0205923
0.0446521
0.0785997
0.00323127
0.019285
0.0179075
0.017085
0.0850377
0.0154181
0.00896126
0.123683
0.0274002
0.137632
0.051622
0.116995
0.0198916
0.0857919
0.000447378
0.0922278
0.00267383
0.115606
0.0235648
0.00515214
0.019916
0.044588
0.0028746
0.0417806
0.10489
0.0121776
0.0154669
0.0117879
0.00293409
0.111165
0.0124215
0.00287133
0.0556741
0.104142
0.00366443
0.0945876
0.00454736
0.013952
0.0437352
0.00482678
0.0956274
0.132153
0.0437383
0.115062
0.0176162
0.0554544
0.0750127
0.00313744
0.0388094
0.0275252
0.10618
0.0159538
0.107588
0.0960241
0.0624928
0.0578076
0.0894861
0.06476
0.000743716
0.0719712
0.00363316
0.00355153
0.0478019
0.0271064
0.122592
0.0700336
0.11722
0.0156243
0.0167488
0.0236649
0.0564688
0.0230763
0.00476706
0.0411735
0.00800104
0.00068504
0.084692
0.0192199
0.092905
0.00828163
0.0703441
0.0234623
0.0424255
0.0808607
0.0492284
0.0951719
0.00658764
0.0358651
0.060378
0.0122087
0.0206265
0.016703
0.0201643
0.04972
0.0319554
0.060802
0.0232207
0.0457668
0.104738
0.113853
0.0406064
0.000668013
0.0899304
0.0623984
0.124758
0.00655363
0.0131171
0.0187647
0.129605
0.04252
0.012289
0.0202076
0.00930998
0.0103937
0.0374314
0.105545
0.135832
0.100928
0.107882
0.0888398
0.0406804
0.00243021
0.0585134
0.00235672
0.0466023
0.100483
0.0434403
0.111052
0.0103455
0.1017
0.0496979
0.0171618
0.000732858
0.00517544
0.0393793
0.0114604
0.0186175
0.0178097
0.106929
0.0630103
0.0333459
0.0137667
0.0714482
0.082596
0.124645
0.0248053
0.072474
0.068222
0.0128263
0.0354532
0.064956
0.123578
0.0216509
0.110522
0.0242841
0.00856527
0.0979198
0.00970749
0.0664439
0.0019992
0.0127848
0.000997295
0.0332131
0.0191728
0.115336
0.00703481
0.0626253
0.0657629
0.00975984
0.0275773
0.0876172
0.101129
0.00957164
0.0254255
0.110032
0.0431004
0.0105853
0.0258432
0.0740222
0.054137
0.0279435
0.103225
0.0028229
0.044415
0.0326181
0.0309432
0.00155764
0.0835345
0.00873451
0.00200311
0.101916
0.00507174
0.0378053
0.0871091
0.0171692
0.110833
0.0247298
0.119576
0.0331212
0.138929
0.00498657
0.0987008
0.0761247
0.0322786
0.0702647
0.113639
0.0722166
0.0175669
0.0498124
0.0502721
0.00286251
0.0337733
0.0191682
0.0204184
0.0056697
0.0394951
0.0540794
0.0216275
0.00145419
0.0587514
0.035247
0.0463418
0.0133164
0.0510232
0.0316132
0.0302632
6.18392e-06
0.0672703
0.0884295
0.0829079
0.0151018
0.00604564
0.0261891
0.1194
0.0903085
0.00112897
0.00499782
0.0371319
0.004357
0.0102901
0.00332549
0.0386905
0.0108155
0.108068
0.0419705
0.0215681
0.00404796
0.0105599
0.00965012
0.00278143
0.0245797
0.0448059
0.117471
0.100257
0.0450765
0.115713
0.0165336
0.0221015
0.00451224
0.0254372
0.0733406
0.0969899
0.0201369
0.0197351
0.0447273
0.0295919
0.0139924
0.0946534
0.00505191
0.00105402
0.0747356
0.00310552
0.00311286
0.015792
0.0144783
0.00729827
0.0402028
0.0186113
0.00970141
0.0143486
0.0153929
0.0136904
0.0595821
0.0452903
0.0275756
0.0629655
0.0999911
0.0950195
0.0226819
0.0211031
0.0819494
0.111362
0.0489918
0.0701659
0.117127
0.0686267
0.00530341
0.00477959
0.118194
0.0297739
0.024024
0.11799
0.0736392
0.0198633
0.0256276
0.00365971
0.0810525
0.0423199
0.0400515
0.016936
0.00103139
0.0126168
0.0127384
0.0310547
0.00277967
0.0275112
0.0744105
0.0760526
0.0759477
0.0213502
0.0971523
0.127952
0.00796714
0.117122
0.0814263
0.0658147
0.0151194
0.00763893
0.007744
0.00139877
0.00343186
0.109944
0.00468945
0.102248
0.0404684
0.0347236
0.0081643
0.000646563
0.114991
0.0309353
0.0501148
0.0969086
0.0510991
0.0590393
0.03658
0.0265993
0.0073046
0.0391058
0.0242984
0.0201325
0.0667525
0.00795731
0.0206891
0.0803288
0.00811899
0.0401492
0.0522414
0.00965587
0.0408209
0.0185828
0.0174772
0.0168236
0.0172437
0.00409714
0.0481745
0.0579112
0.000995569
0.0311854
0.00621894
0.0505312
0.00630251
0.001448
0.00950838
0.0556981
0.118636
0.0400057
0.0147238
0.116096
0.0500137
0.00890376
0.00160447
0.0920576
0.0285317
0.00572319
0.0197552
0.0107484
0.00392965
0.0937534
0.0312935
0.0143382
0.117053
0.0939606
0.0784268
0.00786348
0.0143866
0.0228244
0.0922992
0.00480821
0.00627115
0.042458
0.0542589
0.00469009
0.116982
0.0656328
0.0459209
0.0997862
0.00326375
0.0182186
0.00292184
0.0628325
0.00479221
0.137681
0.00449273
0.0704848
0.0766358
0.0628119
0.032865
0.00556613
0.0479297
0.00816861
0.0143418
0.0597824
0.00885195
0.0322016
0.0689987
0.0154331
0.0456976
0.0138095
0.0312233
0.00242717
0.0306782
0.00084706
0.064498
0.0555342
0.00538283
0.0271856
0.00569345
0.0270882
0.0160287
0.1003
0.00412147
0.0111166
0.0653097
0.0211662
0.0737305
0.038957
0.0353759
0.127654
0.0346054
0.0432956
0.021793
0.0741145
0.0362322
0.0978345
0.0389152
0.00503254
0.0030403
0.0151386
0.0984322
0.0256901
0.0744975
0.012655
0.0556356
0.00238047
0.0698788
0.0972395
0.0411612
0.129504
0.0266556
0.062794
0.0782866
0.0220957
0.0701573
0.0478495
0.00698345
0.0251245
0.0393464
0.0273312
0.0946571
0.00186766
0.00111529
0.0151097
0.112858
0.0836113
0.00193039
0.133504
0.00166586
0.113848
0.0283328
0.073759
0.0226119
0.112546
0.0314178
0.0716362
0.118769
0.0518241
0.0980977
0.0187302
0.0583032
0.115598
0.138303
0.080408
0.00555505
0.0593723
0.0957151
0.0840316
0.0948156
0.000384269
0.0690606
0.0168816
0.0222986
0.110576
0.116996
0.00734434
0.0121767
0.0736301
0.0610638
0.0643462
9.08818e-05
0.0123243
0.0626363
0.00200257
0.0363019
0.0436263
0.111071
0.0332801
0.0170273
0.066285
0.0444602
0.112137
0.0948209
0.00120668
0.00993845
0.0721742
0.0299663
0.000705548
0.0866121
0.025368
0.0315125
0.101343
0.0448358
0.00317062
0.0187767
0.00328281
0.0367316
0.0979058
0.000942044
0.0127956
0.0501777
0.014129
0.0840769
0.0724388
0.00592503
0.0218151
0.0244771
0.0651983
0.0381156
0.0451207
0.00816969
0.0370755
0.0125785
0.0921307
0.107829
0.042492
0.0757036
0.00346207
0.0821602
0.0164114
0.0173529
0.0130829
0.00255936
0.00321423
0.0823801
0.0867069
0.000896722
0.0490044
0.000746905
0.0220957
0.00633709
0.0316677
0.0750181
0.022826
0.0856233
0.0327067
0.0915576
0.0222101
0.0348705
0.0680238
0.0937579
0.0216799
0.0139126
0.0232798
0.0253986
0.0644608
0.0059978
0.033855
0.0262142
0.0377351
0.12932
0.00280438
0.0922235
0.0517727
0.0342421
0.0223115
0.0596714
0.0241202
0.0895474
0.0401829
0.036482
0.0154629
0.0256621
0.00919265
0.0095105
0.0344852
0.0506077
0.10557
0.019191
0.0649822
0.0928289
0.0950346
0.0419168
0.114113
0.0716025
0.019011
0.014322
0.0106283
0.00230016
0.00136183
0.109844
0.0640012
0.105391
0.00904834
0.104486
0.019789
0.0352387
0.0908572
0.00692809
0.00963049
0.0212663
0.0523156
0.03464
0.00361865
0.0303259
0.0284069
0.0730299
0.00695983
0.0250615
0.00118012
0.108134
0.00220547
3.48788e-07
0.0375601
0.00419524
0.0622878
0.0890082
0.00366525
0.0286218
0.012618
0.00166817
0.0577365
0.0693739
0.0251969
0.126018
0.0669387
0.06254
0.0126578
0.0303591
0.0127954
0.00266606
0.00243433
0.0251746
6.15602e-05
0.0929935
0.0474917
0.0132816
0.0667578
0.057995
0.0254479
0.0412381
0.0245809
0.0221725
0.0344417
0.111895
0.00349129
0.0426135
0.0108543
0.0316872
0.0303891
0.033618
0.0787315
0.0348219
0.0827464
0.0278269
0.0111189
0.117343
0.0185814
0.00559997
0.101728
0.00317225
0.0193625
0.102012
0.014976
0.0870722
0.0320711
0.0630579
0.0100106
0.116409
0.0116694
0.075679
0.0745873
0.0323191
0.0165828
0.00118444
0.0811063
0.00488174
0.00936497
0.0597161
0.085638
0.0297716
0.0140029
0.0737282
0.11354
0.00361915
0.0926617
0.0906867
0.00755863
0.0863885
0.0168874
0.025619
0.0247812
0.0833995
0.078556
0.0387199
0.030537
0.0106001
0.0215035
0.0289429
0.0368536
0.00307595
0.018435
0.00707067
0.0950761
0.0994158
3.3652e-05
0.0340075
0.0151939
0.000475307
0.0511273
0.00468379
0.0545667
0.10855
0.00201716
0.115489
0.00739664
0.0409313
0.0205118
0.112733
0.0379531
0.0011909
0.00899833
0.0936702
0.0240584
0.0556947
0.0203269
0.00402745
0.00825732
0.0950629
0.0143278
0.0107136
0.0262947
0.0244609
0.0261876
0.00622729
0.0470628
0.03852
0.135705
0.00493606
0.00791234
0.0583962
0.0803356
0.00519076
0.0776435
0.0365504
0.0084979
0.0279485
0.03316
0.0471655
0.0120452
0.0478249
0.0165046
0.000792011
0.0562896
0.00665602
0.0116638
0.0696894
0.0407578
0.0541908
0.00267653
0.0417378
0.0238908
0.0168348
0.0640441
0.0836487
0.0395929
0.0254326
0.0890977
0.00464912
0.126186
0.00538902
0.011507
0.0366811
0.0453232
0.0186064
0.0962902
0.000526117
0.0295237
0.0431044
0.00409115
0.0285314
0.0361083
0.0424499
0.0568526
0.00554684
0.077333
0.0559524
0.0319328
0.00333614
0.0354198
0.00844235
0.0844028
0.0371016
0.0198591
0.123426
0.0057423
0.0932985
0.0268614
0.136338
0.0416452
0.0248031
0.118213
0.0306331
0.0166894
0.000882435
0.118985
0.0210043
0.114823
2.0331e-05
0.116687
0.0536247
0.0248968
0.0467257
0.0634314
0.112719
0.0232853
0.0096766
0.0225694
0.0111347
0.00807343
0.104606
0.0803799
0.0682296
0.0138184
0.0245811
0.0628324
0.114899
0.0513038
0.023036
0.115614
0.0178948
0.0440675
0.0184668
0.0868316
0.00612167
0.102563
0.100391
0.04481
0.00466922
0.0433175
0.0885524
0.00785403
0.0839411
0.0248451
0.0717444
0.112169
0.0105072
0.0385922
0.0212546
0.0605144
0.0282652
0.00745198
0.0209677
0.00924319
0.00289101
0.0541745
0.115619
0.0597413
0.00588973
0.0695466
0.053723
0.0273196
0.0701622
0.0523879
0.0283451
0.021944
0.0948651
0.00329549
0.00476738
0.0926755
0.0162327
0.071505
0.108924
0.00370167
0.0765623
0.0940406
0.00473649
0.098023
0.0835322
0.0532622
0.0244766
0.00694593
0.0673226
0.0300013
0.0187338
0.0570191
0.0818477
0.0110134
0.0291533
0.0677511
0.0337118
0.0157013
0.0666456
0.0720646
0.0951978
0.107798
0.0272933
0.0426277
0.00212846
0.0901754
0.114803
0.00153875
0.0594916
0.00716594
0.000958065
0.00365541
0.0139641
0.0521208
0.0245654
0.0308272
0.00176426
0.128699
0.0382427
0.00423037
0.0713289
0.00883271
0.036313
0.00210216
0.0878294
0.0622749
0.0257444
0.0717157
0.0269744
0.116951
0.105035
0.111799
0.0432869
0.00101715
0.0244059
0.0268436
0.0723471
0.0493957
0.00169963
0.10067
0.0664609
0.120345
0.0176966
0.0251386
0.0596498
0.0196726
0.103441
0.00255387
0.00331465
0.102556
0.0383093
0.0301046
0.0135699
0.0338178
0.111959
0.0172796
0.0423753
0.0297352
0.00930056
0.021993
0.0765118
0.0784259
0.100226
0.00471974
0.0346363
0.000303574
0.00396303
0.00569998
0.00235445
0.000325965
0.101619
0.00221607
0.0197668
0.00886006
0.0229777
0.00260323
0.0197414
0.0908521
0.0298182
0.00273117
0.114486
0.0560927
0.120431
0.102703
0.0978287
0.00275396
0.00433483
0.00460318
0.114266
0.0121861
0.0900583
0.0214728
0.0881864
0.0106048
0.0845684
0.132148
0.112325
0.00676188
0.0671963
0.112771
0.122426
0.0183813
0.00877886
0.107869
0.0281533
0.0685428
0.0550932
0.00662042