/*--------------------------------*- C++ -*----------------------------------*\
| =========                 |                                                 |
| \\      /  F ield         | OpenFOAM: The Open Source CFD Toolbox           |
|  \\    /   O peration     | Version:  4.0                                   |
|   \\  /    A nd           | Web:      www.OpenFOAM.org                      |
|    \\/     M anipulation  |                                                 |
\*---------------------------------------------------------------------------*/
FoamFile
{
    version     2.0;
    format      ascii;
    class       volScalarField;
    location    "400";
    object      p;
}
// * * * * * * * * * * * * * * * * * * * * * * * * * * * * * * * * * * * * * //

dimensions      [0 2 -2 0 0 0 0];

internalField   nonuniform List<scalar> 
14558
(
58.9361
48.8736
58.7178
45.7776
96.0911
80.65
65.7236
81.3389
107.567
78.5929
20.4205
77.3007
78.854
106.734
-5.2901
-24.9706
6.91635
63.3222
-5.29247
111.55
6.87381
95.2733
68.9923
5.04505
20.2083
71.3148
3.83422
5.76132
76.3516
91.34
116.809
59.338
94.4663
5.44752
23.904
56.9544
68.6121
80.4776
65.8872
17.755
3.88419
93.1627
22.7947
106.912
79.9935
82.7401
71.3614
99.1482
115.725
92.1024
58.9854
92.2959
114.592
58.8979
115.821
64.1898
-3.10907
64.3361
62.9814
107.677
66.0563
76.3984
-5.92645
77.1416
23.3143
81.0817
79.0723
107.306
116.418
81.3383
118.07
22.2383
66.4643
9.81003
107.956
53.4465
91.3501
82.773
63.3493
107.96
-26.0698
23.986
42.6808
18.8872
-4.9272
2.83285
45.3051
86.4031
-4.80996
66.0632
-34.1928
117.109
-8.92004
62.0046
7.14963
114.183
83.2796
68.7587
77.8578
44.7641
44.27
42.2997
93.4179
-21.3081
74.8798
83.52
49.1488
113.571
95.7188
77.0066
0.0254943
34.1316
74.5596
75.0058
44.8024
19.2273
21.1071
67.1668
105.641
95.4433
-41.2607
51.3836
82.1963
-8.84181
-94.7148
-0.287947
9.74195
106.597
27.3932
87.4693
60.9522
115.699
-11.1839
94.1911
75.8039
112.178
40.6747
50.4824
46.8845
11.1336
9.94457
64.3747
97.8298
-6.79492
10.5837
47.4061
76.3882
114.519
90.0489
83.4142
59.8665
103.985
65.9833
79.7619
114.42
75.3879
56.9161
109.683
76.7393
2.48968
0.462356
16.9004
65.6546
75.6963
39.7431
114.283
74.7813
106.092
91.3219
83.1698
67.7859
92.2849
120.42
104.76
107.454
62.8751
1.6637
115.442
82.3382
16.0728
47.1588
75.9276
59.7217
104.128
107.341
115.591
-4.47219
70.5481
109.644
73.3273
112.569
55.9601
39.8039
78.9141
57.5751
-1.46145
117.783
99.1293
109.085
113.624
-1.17598
76.2211
-58.2766
61.4124
54.7645
107.868
80.3727
26.3299
51.4757
53.874
17.0359
76.9629
76.4558
17.8284
55.1019
78.8184
51.4002
120.898
113.471
108.995
45.7637
54.5092
26.1692
75.0179
80.7415
75.4025
75.0875
117.579
0.0231141
74.5288
77.497
62.9363
64.183
11.9579
22.8796
111.978
53.7342
116.107
60.9936
-56.3219
-11.9403
62.9265
59.9943
93.4823
44.8128
23.5426
67.3156
25.9466
-6.44008
76.1216
112.962
77.3199
76.2848
66.9464
90.8103
107.009
89.9722
41.8736
76.6782
74.1032
73.4313
-4.3741
25.1007
63.7322
-0.136783
21.4575
61.3733
-9.67779
104.535
39.0615
28.2078
76.8936
98.5698
70.8308
75.2034
82.4163
88.8081
104.966
0.319759
201.56
81.9116
41.6138
75.6068
92.5745
40.277
26.8567
41.3203
106.722
60.1155
85.2632
42.0309
75.374
104.535
99.5721
113.717
65.5857
105.311
11.4535
14.597
-0.509904
56.1854
88.1897
109.988
103.597
64.4176
24.1414
112.972
76.5363
96.1394
-4.33064
71.7169
-0.422226
38.4308
67.4587
117.321
49.5863
65.0293
64.6943
-8.65118
76.807
113.656
-6.45073
111.908
112.591
54.0007
-0.755004
6.63498
112.353
74.8771
5.65004
67.4859
40.3961
113.17
14.0519
43.0612
19.3972
-2.91289
61.9871
44.2075
59.0178
100.866
56.9643
99.2118
76.9411
45.773
15.8486
-6.1216
-30.0032
62.4974
117.783
59.2352
112.315
115.544
20.7127
10.7735
78.466
-1.4284
-1.94506
39.4262
110.19
75.3821
90.0092
65.8811
62.2989
106.996
73.2401
62.9859
9.13135
117.244
-3.09623
65.4754
67.3927
72.9835
69.4881
-20.3602
75.2116
-4.73862
72.7162
19.4259
62.8737
5.95304
66.5536
87.8606
76.5614
74.7264
70.8004
58.2212
61.6257
107.555
-28.4703
106.378
20.7893
65.8244
-87.5669
5.00715
49.1698
56.9711
1.30685
-117.763
83.9381
96.1829
103.271
75.2906
69.3386
10.8953
85.1649
14.8609
-3.41225
-5.11935
-64.5973
82.5312
117.168
67.5351
76.5223
67.5385
-92.7882
89.7726
87.3136
66.0414
-19.2083
-8.19197
115.037
120.956
72.0363
69.1405
64.5536
188.37
-2.96492
44.513
59.7041
111.6
59.6446
78.1675
113.343
25.767
78.6804
87.1106
77.6324
60.9772
12.0818
6.42747
89.3161
68.5265
46.0281
55.4244
61.9385
75.3791
76.9757
77.4247
37.4869
-51.1674
54.1584
-6.45481
65.3079
27.4097
36.0537
-7.04303
85.9463
65.2774
77.961
69.617
0.45498
60.9449
52.6894
-7.97701
112.277
101.568
106.501
67.2005
34.6227
-16.6802
93.6766
63.8525
20.1344
80.692
68.178
11.8544
104.119
64.5861
94.2254
54.9931
-3.50198
14.9707
122.717
69.7263
57.3849
116.052
110.945
10.0851
71.6462
110.035
95.6053
-34.5307
12.2215
113.039
109.194
72.4123
105.454
59.8252
91.2779
119.121
24.5201
90.1856
64.5544
53.6261
94.6318
35.937
67.6925
97.8689
-1.38819
2.80829
14.1054
-6.54014
53.792
79.8297
61.4218
76.0376
-1.66311
103.613
34.8289
74.9448
19.1153
49.9839
57.1452
114.4
87.7147
34.8764
61.7274
2.86991
12.225
83.6995
-21.3784
60.3003
54.8363
-36.5157
52.3328
15.1939
72.2823
83.1248
113.085
119.743
-1.71134
7.56445
2.85442
120.47
102.886
56.4692
76.9634
106.43
76.1407
90.6262
99.3967
90.6394
52.3226
-60.491
12.4532
114.357
2.32464
114.427
66.0561
13.3791
-2.20088
111.663
90.8422
14.7128
60.2228
63.464
65.1837
15.3231
111.985
66.9388
44.8071
72.2808
77.6724
0.998547
168.131
-46.8677
69.4227
12.0814
12.1317
77.9538
67.3733
80.9209
63.951
77.4992
71.1573
2.80486
44.0285
2.14299
76.4404
-7.63464
44.4857
79.2448
17.3221
70.2709
10.2112
18.408
62.0609
69.4372
26.0024
112.071
85.9045
-81.5676
111.528
-2.82537
56.4171
76.6009
75.0838
49.8135
76.4397
48.1157
114.189
-0.794526
7.16801
68.4387
87.9221
-9.22809
44.3716
23.5686
14.3612
59.3299
107.335
82.8143
71.4545
76.4077
-6.19609
2.43877
-13.576
0.722627
111.843
-6.67966
30.459
-6.13149
71.6108
-4.8522
67.0828
68.1961
65.3215
84.4556
7.58403
110.831
59.2383
1.70444
114.491
76.6894
69.117
38.0326
4.59284
74.9113
12.9608
87.4486
88.04
12.3121
65.1906
108.729
-4.66124
56.9073
40.5636
119.316
104.05
76.3904
107.642
113.171
78.1302
6.75863
56.0493
13.5266
72.2292
44.3761
119.093
75.164
98.1656
5.7989
71.4325
-7.04001
-105.365
33.3052
61.5244
67.4405
118.069
-12.5536
79.208
114.575
76.7965
78.2916
113.399
78.6465
11.4939
66.2292
93.7314
112.863
1.04141
383.467
108.854
-1.15028
-32.8663
51.1901
69.4527
82.6788
109.328
94.5404
31.2764
118.855
107.314
92.9881
97.3593
54.5669
-1.68102
12.929
23.4174
64.7516
20.7736
50.7525
56.8862
-9.44387
89.9065
75.8065
35.0324
56.9999
133.078
7.07516
53.8587
76.4602
-7.77932
-10.3998
75.6755
88.9515
-49.8378
-0.106585
63.8353
-111.911
118.1
42.3335
119.186
70.0506
37.6413
83.3762
80.8483
84.1747
115.037
60.8377
29.9424
115.598
-45.7033
-24.9615
71.8053
77.3002
12.7052
49.7567
109.06
78.649
35.4133
74.6617
39.7849
64.4266
113.798
116.429
29.7124
133.063
3.99374
107.331
99.8226
19.3871
64.6187
45.0814
114.867
90.055
25.3872
65.7797
-8.37149
47.1378
75.438
8.85013
96.9871
6.33228
58.014
71.3471
71.5743
95.004
75.8942
72.4942
72.4912
81.3973
97.7486
66.4145
7.01081
191.422
16.44
70.8847
-4.92896
72.0138
1.05163
14.003
110.463
75.5087
75.4752
83.3167
50.2174
8.42673
115.77
-1.62268
22.6519
101.44
9.04823
76.3473
-19.9607
56.1193
98.2839
113.294
27.5863
60.989
-0.0621157
112.348
-6.91364
3.24326
38.9569
114.006
8.6606
77.9151
71.3201
113.278
67.9185
60.0705
-8.73846
58.0612
14.0234
0.791529
106.402
43.7267
14.9966
54.695
-22.3308
71.9907
22.4828
68.8586
109.719
101.355
26.389
82.9613
79.2646
83.2216
110.386
106.175
-2.56996
0.903443
50.1188
-6.69885
81.3879
76.1263
66.8568
90.3749
70.6528
32.8988
-2.67641
28.797
-42.512
110.259
16.5834
89.8938
37.6069
118.122
75.6764
-3.1414
82.3548
250.163
-4.23408
114.984
52.0519
-34.5924
75.622
77.1541
7.47537
76.0889
23.2581
-74.4132
105.344
101.317
0.256853
-16.6974
59.2257
62.1994
20.2915
73.8157
107.994
54.5154
104.816
61.3666
74.7114
63.6136
-65.3145
1.68999
62.7003
32.7358
47.5641
60.2351
100.58
29.8595
108.525
74.7682
110.562
50.7361
14.8343
64.1067
79.7445
27.9581
84.3422
75.8421
93.9447
98.3005
15.525
77.7301
70.1049
108.974
5.66975
109.719
53.4502
77.2311
99.5459
5.86914
109.706
64.5513
81.3945
35.765
52.6746
7.42108
101.918
94.1995
88.7531
-49.7273
63.6851
4.94571
-7.18333
90.2497
16.8764
151.152
11.8151
113.215
75.2594
45.3796
2.39319
62.9854
63.7871
95.0131
57.3482
59.2533
28.168
63.436
104.16
108.439
-4.90148
79.377
-1.28063
-23.5764
8.83846
115.103
18.8851
-0.243885
115.747
6.60103
3.11674
-2.32455
72.4927
11.6612
29.5906
90.5571
66.8019
96.0406
114.934
72.324
72.4883
14.375
114.454
62.8288
11.3075
-173.828
-9.05741
22.3722
92.9205
38.5339
105.671
61.0154
54.0497
-3.74463
2.90971
23.9348
19.2043
55.9097
76.8118
76.0534
6.81854
113.982
54.6381
27.0428
54.7135
109.78
96.8802
74.6571
111.892
101.023
75.1025
21.7548
55.6547
80.9694
25.4305
-31.1976
32.9168
67.394
16.7683
16.2856
64.6307
77.6762
113.94
97.038
87.9576
57.2014
115.184
36.1244
79.7963
87.3828
30.8278
62.2214
0.60373
-20.0635
71.8034
104.571
63.6179
72.976
-3.65105
61.5955
8.67729
76.4662
49.1533
67.3054
66.4695
8.27226
60.6351
89.1826
27.2587
5.29308
35.1484
69.5918
108.625
84.34
114.863
-60.8058
104.607
67.5025
66.9064
-22.712
69.8538
45.746
91.6238
57.3433
97.4678
61.8224
94.5535
65.6354
61.3511
81.5112
77.3495
63.1428
61.6517
-2.2433
110.323
13.289
64.8358
201.373
67.8468
77.429
62.851
111.177
15.4113
-5.14584
-101.196
76.2702
103.629
111.16
12.2576
-13.0494
92.3134
45.9239
-9.35643
106.939
152.548
61.7716
-4.34246
18.0033
107.296
63.2947
52.4712
75.6175
46.3925
-8.43574
79.7868
83.8048
42.029
77.0182
75.1418
55.9388
51.6923
47.3151
-1.85985
-8.80051
138.408
118.178
18.0901
60.1085
204.913
41.4058
66.0448
-53.8902
86.1332
23.0242
20.7493
22.437
77.2816
61.7137
63.0709
68.4461
112.279
2.95095
33.9202
-1.59342
73.9793
74.471
60.9494
18.4033
27.3029
88.8494
49.6527
80.7171
-10.642
18.2358
114.903
70.933
71.3972
50.859
70.7168
87.8328
18.8798
40.2448
1.26796
52.0171
78.2881
34.2407
123.863
109.796
61.0038
-6.19356
85.3833
13.9846
106.622
115.214
64.1941
15.1671
64.9654
109.919
-30.0928
75.8684
118.694
62.4366
59.4668
75.1182
12.3422
60.7149
107.467
73.4243
50.9506
77.1625
101.707
119.222
53.8717
73.8457
103.981
-142.924
53.6234
16.0238
104.632
60.1732
75.1185
64.3161
75.1708
14.3363
116.252
60.8401
74.875
52.1576
96.2768
66.701
102.292
107.701
58.9856
-1.09512
65.4542
89.9121
24.9244
2.32859
114.929
115.053
69.6825
107.875
80.3125
115.861
94.1145
93.6224
-0.125882
-3.70288
28.7194
18.2311
106.455
25.2795
29.1423
-1.45286
71.9014
105.896
13.0787
106.528
92.3387
29.249
78.3273
26.1655
76.9915
75.0126
-2.3887
108.945
51.2201
63.0441
116.124
72.5542
32.4374
45.3045
112.966
70.0885
136.58
67.307
1.1095
77.4704
43.806
-4.13264
60.7911
51.9113
42.1832
104.372
43.4062
-0.0323436
11.8398
78.2589
103.847
48.0061
106.225
-76.2979
114.534
104.266
87.3855
27.1684
105.841
77.6149
202.159
89.4109
-21.6762
149.537
6.07221
113.463
56.6042
3.00386
67.7876
70.0392
-0.870147
117.221
83.2847
89.3147
72.794
51.8991
71.0541
63.6765
65.3026
0.520196
68.5929
1.74945
108.545
63.9328
9.92178
4.9288
85.9239
109.423
115.015
78.4091
35.0255
118.05
83.0335
3.70297
81.0432
71.1127
59.9294
75.9436
68.432
-17.8312
108.49
65.2888
50.8068
76.1063
-89.8149
116.128
47.2905
32.1257
59.9825
75.7195
83.5238
59.002
76.1908
60.2175
37.5089
106.289
114.135
115.619
63.4878
63.774
74.1283
65.8691
107.561
94.7691
74.1369
36.6389
2.90929
107.789
94.9657
42.0127
55.464
76.7511
84.0686
58.1016
66.5868
82.0495
76.58
314.401
115.266
115.229
95.8876
81.5698
79.2244
78.8057
60.2989
-4.99096
83.7029
114.505
22.3102
71.9367
63.9496
72.3961
93.7046
-7.75747
21.5229
37.7331
85.9644
19.7726
-48.9698
61.4711
7.66853
98.8148
75.4716
27.3402
52.8272
32.6838
221.815
-34.084
71.6535
86.2813
60.3223
4.49008
20.2023
80.5059
117.155
68.2633
56.9458
68.3746
100.341
75.5578
-9.18629
-6.18266
69.7605
124.09
113.901
59.0207
75.4033
4.30883
4.20567
52.8312
52.4556
94.1581
12.3291
80.4742
99.0596
-28.3083
18.3532
69.3276
95.1408
77.8218
77.5748
62.7889
101.136
0.419437
2.44783
22.8182
94.4556
3.08923
25.9548
58.5636
23.8617
67.7296
63.9765
88.6166
86.1887
5.50413
-9.19102
61.2234
10.5776
100.678
5.12733
91.7931
4.44331
118.012
7.68387
-52.6249
32.62
77.7507
93.9081
37.5312
2.36428
21.5709
108.428
120.194
60.7562
113.921
63.1506
102.732
10.819
61.0901
62.1853
74.526
111.805
-8.3445
6.95896
32.6887
95.5193
2.87969
11.0416
21.5027
59.9695
74.1348
12.4903
80.3691
75.5445
79.9954
-14.3514
64.3593
52.3491
-0.323452
74.9848
59.14
72.5997
81.9651
83.8834
108.777
7.66037
8.72727
68.7957
87.2944
35.0278
72.192
-7.83029
24.291
29.7959
-5.40116
6.04285
37.0719
105.807
113.734
34.7724
45.3506
11.4418
115.367
112.863
111.546
-70.9958
21.5646
97.8716
-1.78059
116.737
5.48714
115.966
1.24759
80.1619
89.9
23.2922
66.6016
118.391
110.607
89.1291
8.10147
8.86034
242.513
97.3614
22.2369
-25.1526
40.7184
56.6555
82.5182
117.383
66.1531
92.0558
64.9062
88.7543
63.5171
-4.56299
-0.381475
114.102
65.9722
68.6034
79.7284
64.2693
-3.14441
141.663
-0.43942
110.133
105.044
110.046
54.4625
139.414
68.0819
106.386
89.0388
78.9799
89.2488
100.565
35.7909
107.082
66.6957
57.1876
32.8959
81.6742
29.2448
213.829
110.967
62.9788
39.8637
81.0372
-12.4698
6.00374
67.4648
76.6782
73.3289
16.3611
65.5829
79.9444
53.3877
41.1159
61.4409
107.729
53.9422
100.581
70.9512
-1.25559
114.96
110.703
-2.24625
99.1806
1.68124
108.962
112.467
115.896
84.0636
-3.11162
84.9738
16.4363
74.2771
-3.30842
82.1021
89.4666
111.589
90.9555
75.0057
69.5285
-0.288385
80.9373
100.062
0.794856
91.8128
-6.20839
28.361
-9.74175
29.0016
63.3886
100.668
80.0872
92.5603
7.17338
-3.65611
79.431
-2.66301
107.608
109.479
72.6307
72.8797
57.9375
64.995
74.7945
73.4622
3.69639
45.1966
115.425
102.595
109.317
40.6058
93.4506
-0.783831
98.8389
-0.0692064
-0.238027
79.5583
24.9703
62.1631
68.8342
5.78211
-46.9222
113.972
94.7079
15.0046
4.72873
19.6901
68.8979
73.128
56.7873
74.3958
4.86503
81.4145
45.7341
-1.61626
109.455
37.2861
11.0891
19.2446
74.1411
6.74272
40.1542
42.5312
1.83318
110.962
5.40823
48.2445
106.154
-18.6985
72.6586
-46.5232
58.4205
75.9489
-11.4662
52.2117
2.58937
8.34306
19.076
76.6171
89.1556
0.151123
23.7704
46.3176
23.7251
25.8353
61.6298
7.42168
47.5173
98.6413
63.6367
48.9111
100.565
105.09
51.2189
37.8494
58.6577
84.6539
5.7898
116.667
48.4202
73.7705
48.3324
73.5364
-4.14344
103.708
21.6719
68.5447
86.1511
26.0028
76.5417
101.791
79.0421
7.76367
338.506
99.6183
-127.778
40.833
74.5123
54.7786
55.0428
76.4463
23.2809
-14.8371
41.7611
63.3484
-8.44109
-13.0212
54.1495
1.06326
78.0922
98.2155
70.6918
14.8632
90.2808
-2.51207
73.1249
70.2793
72.3654
50.6284
65.9019
8.74999
77.5485
99.8911
4.52149
-63.58
64.2946
114.736
22.3639
-2.78623
83.2341
49.6329
117.923
105.301
1.38134
50.7784
80.1561
41.8516
60.3163
113.359
70.3171
68.6006
105.922
36.6559
68.806
70.8423
98.4927
77.2026
97.581
-4.01967
93.0926
107.184
75.0633
22.5571
0.639137
64.3483
110.12
116.726
93.1698
66.7572
70.9229
75.0713
55.1995
35.8334
76.4073
114.39
52.9685
-55.8198
104.511
102.641
7.8326
45.1452
51.8971
68.4059
72.0059
2.52368
-10.2833
72.8379
-4.51509
27.6411
62.6985
80.5516
22.7379
-2.94814
76.1341
29.9124
-22.6515
109.012
-5.43265
53.22
16.2614
56.9927
88.5002
88.5472
75.1904
61.2801
97.6367
102.265
83.0996
112.826
93.9712
78.1999
75.5828
67.2868
63.4999
6.10121
283.081
114.039
103.347
65.9355
113.235
105.935
2.98037
-72.1065
48.2858
76.1613
61.2075
49.6029
80.8546
-1.11069
1.40238
6.31712
76.0236
-9.08937
67.3099
-24.7885
16.8166
-50.3618
61.6768
11.9978
83.6117
65.8688
10.3015
60.2067
2.60505
-0.460705
2.04388
114.555
-1.08608
-0.403282
55.418
11.8662
40.9689
67.7845
144.887
43.9132
89.8037
38.9143
-1.54781
-1.37746
8.90578
107.26
53.6277
51.2553
115.033
107.592
83.6378
101.408
28.9157
63.8312
73.3467
19.4908
55.0493
61.7624
112.752
81.595
97.1872
1.9415
67.3179
88.5942
73.2696
75.1951
85.5302
75.3827
40.9687
-4.93511
200.69
77.8727
115.888
-5.48001
116.238
70.6486
5.83627
51.0555
78.7672
61.4281
5.82809
60.5812
-10.9493
86.9094
22.79
5.95542
152.305
-10.0506
66.6741
102.729
30.4792
-2.40454
112.243
-10.1788
108.175
29.8848
62.0525
14.8015
1.8482
74.1316
14.9565
76.1784
-1.7222
33.3957
0.861826
119.955
-6.14276
55.681
76.856
-1.78177
78.4794
81.5812
20.0619
69.9079
-2.82787
88.9759
116.042
15.7877
12.2692
62.1983
59.7913
101.025
75.3228
93.2292
-4.87178
10.0874
-0.990182
72.5172
69.3318
45.1926
109.156
147.488
59.4216
108.479
-2.07448
99.2891
-2.52023
81.1567
94.4177
76.7247
60.4237
87.7849
47.4549
80.4851
103.553
74.1437
47.581
102.996
70.3619
181.608
26.2888
63.1801
57.1439
87.0772
34.8833
45.0495
-3.08093
-6.13253
150.88
115.231
-4.47611
76.7704
74.3085
-4.07518
64.4819
76.9116
75.4183
12.5594
18.9122
58.4619
11.1635
105.393
5.5233
78.6675
71.5439
-9.89592
77.1018
66.2016
-10.3415
109.271
36.4973
116.329
61.2291
-2.94469
4.81839
-5.61771
74.3528
80.4731
43.8032
44.8399
376.952
105.069
57.5331
95.1006
45.0833
16.1478
-7.18084
109.544
60.2333
-68.4834
59.802
-0.192172
75.1434
89.784
56.8224
16.2463
256.876
77.2503
108.821
70.366
63.1075
76.1709
56.9474
105.484
67.0118
16.4726
2.74256
118.416
84.2796
111.914
46.8506
48.9439
75.8052
43.3145
73.9677
82.0472
80.1145
5.55945
88.2269
-0.841949
10.3421
16.9951
77.5408
-14.7574
24.2196
46.015
11.9235
73.1684
39.9259
-2.3059
112.901
55.9403
67.4713
66.2882
112.838
-2.97
82.0723
63.8917
2.73494
347.702
45.2404
71.9518
46.3008
-2.27159
-0.93582
75.54
74.8891
72.2121
102.265
-4.12646
-0.577578
60.0336
3.96697
72.2209
93.7318
44.0405
89.6897
11.2438
-17.7192
28.0211
80.2233
75.9486
101.511
64.2953
4.95501
31.7564
111.826
74.3857
74.8388
72.0261
175.842
10.6235
12.9091
70.1192
112.882
76.5363
85.3135
-2.78353
58.9016
98.7521
25.5039
70.2261
0.0369979
114.224
94.1982
-14.9653
115.596
32.6539
108.426
62.4154
106.314
-2.01191
59.3985
31.5647
87.0444
92.6996
76.9665
109.75
29.7401
56.9781
-2.2941
5.78963
15.6679
76.0565
4.49389
5.6988
82.481
153.078
96.5345
1.22955
57.2529
70.292
12.0957
15.0035
62.0872
82.1719
-5.75919
114.684
19.5341
-6.60212
117.222
79.8909
12.9427
36.0222
-1.89874
94.4816
12.8208
89.4728
-8.48573
6.0204
71.2295
21.7576
55.7409
37.918
-6.29458
1.79219
36.6907
32.3386
78.2683
75.9476
25.7066
10.2179
0.632791
5.61951
107.526
85.5621
75.6085
18.1988
30.9946
-1.30622
69.4976
-70.6633
53.5672
85.1975
86.1121
60.4265
12.866
-74.4177
115.684
99.9941
1.15374
67.6758
118.401
-12.2555
58.3114
7.63666
81.5992
38.7265
-4.07672
67.3232
110.855
74.2553
76.5587
96.2783
19.6459
57.204
55.4086
114.147
47.2656
-5.29845
109.104
-7.43315
-7.08166
9.97592
108.355
112.979
-1.1811
69.0733
48.3946
-4.36533
44.5741
51.204
47.583
96.9673
89.582
63.405
209.335
19.6931
99.2946
9.21932
76.8648
78.2142
99.1729
74.9345
39.8038
11.1389
8.77502
7.9513
228.034
86.1171
13.3543
105.516
12.7948
63.8275
33.8331
67.8645
93.852
75.3917
11.2879
112.465
67.5045
65.1023
-1.57761
60.6523
43.881
74.9167
43.7605
79.2893
117.045
66.4063
92.0616
2.79591
-64.0269
78.9262
104.02
80.3133
67.8069
96.2434
-5.21112
67.8736
93.8135
109.107
83.0989
18.0424
-6.87786
50.4876
109.029
59.4466
116.741
113.513
-3.2646
13.872
4.69009
-6.16728
109.672
67.0467
108.459
76.3686
29.6611
74.2989
112.656
72.9194
18.9671
76.3504
86.9941
88.0276
53.1109
4.87545
106.831
109.176
79.8527
-38.312
7.91668
71.0798
32.8691
44.49
64.483
117.724
29.0984
112.949
104.828
50.901
97.3349
196.876
4.81571
158.099
28.1682
-8.07263
107.428
63.1777
31.3549
58.7999
-0.12058
6.34839
75.4718
74.76
99.2016
148.267
64.0782
5.62593
74.6156
4.72514
51.2612
-15.3807
112.758
16.3431
76.6352
43.7167
87.032
92.8099
89.8095
86.0609
99.435
-6.27143
60.9696
74.1179
23.7305
-0.572156
91.5188
98.706
93.2907
58.1519
105.518
5.75337
51.9771
54.1343
71.2994
110.786
110.438
72.5594
71.7805
11.7584
111.727
73.9865
114.061
75.7492
72.0665
73.738
29.3575
-12.6124
11.4293
2.56384
-3.1718
122.322
79.9754
210.348
3.24843
-7.77573
72.6509
63.9423
110.224
106.702
76.8428
1.40968
76.4897
117.307
23.1168
85.3914
62.7673
-7.06722
-5.22006
102.292
63.3596
58.6615
76.6276
18.9332
114.93
62.1101
58.9229
50.3424
6.43624
66.7558
77.2286
-11.902
92.5526
23.7355
129.772
-4.82527
75.1473
114.397
61.6343
18.5301
22.2049
116.507
77.8515
62.4664
84.0234
80.9747
0.219728
119.149
77.3173
99.8914
6.34018
-5.40998
112.357
229.698
61.3431
100.144
-1.42076
2.21036
96.7039
88.9336
21.3602
96.072
-7.73807
66.1099
3.90308
67.8235
6.56319
66.39
-9.87064
27.8826
86.6831
16.4883
7.57305
-77.7123
-7.24138
91.857
117.502
28.831
88.0206
76.3584
113.209
115.494
114.477
32.1207
342.426
27.5973
80.2896
75.3167
0.0369122
56.9231
84.0026
19.5019
49.0869
58.363
81.2896
71.3462
-14.8094
18.3278
27.598
19.2355
28.0796
5.26032
25.8172
40.4084
74.7265
105.243
-1.09912
102.896
62.4751
29.2067
66.9535
32.991
74.5129
65.54
79.7108
4.57928
30.5086
78.3915
62.9681
0.264302
128.67
-8.17365
99.6293
65.8655
84.7293
-4.07583
61.5445
76.4748
88.9651
82.151
21.415
1.51204
-145.163
115.356
1.13037
62.0069
79.1636
13.7228
-0.0153697
59.5018
12.1957
68.3412
-10.3914
77.4141
116.475
26.7763
74.9371
2.03454
56.8151
4.60384
14.8024
99.9003
21.3511
113.28
-8.76652
114.081
110.286
142.485
109.715
74.2558
2.06931
112.269
70.7984
83.7076
102.341
70.1865
71.5294
67.4028
75.2443
105.75
110.557
40.7037
76.1517
115.643
112.673
108.91
39.6668
115.842
2.17336
59.2862
88.9987
76.7315
26.9918
52.9593
51.626
62.0602
44.6776
1.30111
69.0964
100.522
13.2578
0.148796
6.17316
-4.72378
73.1817
5.34856
82.6024
76.4088
22.1306
87.5438
75.2351
57.713
103.048
-7.66745
78.2717
35.2526
1.46303
-41.7006
0.690167
63.8433
112.208
112.757
-1.77974
55.5772
-0.405226
14.5869
73.7473
40.5013
112.126
91.8532
37.5237
105.004
42.256
86.6699
4.94291
41.7512
15.0973
-8.61977
-12.69
-1.60011
-4.97269
13.6955
-4.69566
11.2987
11.3197
19.6211
-1.25049
5.13264
56.9331
82.4434
3.96227
3.15392
74.4356
-3.22122
110.013
83.2082
108.075
-6.48412
-10.488
113.963
15.7814
88.1836
91.0289
130.736
11.8638
39.9089
-4.28351
110.799
-2.51919
31.8772
89.5403
36.1876
-5.85613
53.8656
112.557
12.1714
70.6426
7.52617
62.7496
77.0603
-39.8515
-1.63957
81.3473
59.6357
-3.35628
53.851
16.9098
16.0335
106.489
52.8898
92.0714
75.1249
83.9022
1.35996
47.3498
-2.17121
49.3296
94.5991
139.726
4.7304
65.5651
65.8582
134.34
9.52749
3.25534
53.7923
112.513
106.135
84.2314
86.4161
20.2936
124.537
26.9327
90.283
59.6415
74.8838
79.89
7.47257
-2.67618
60.9368
29.4074
2.48439
49.9593
75.0631
-105.537
66.5864
10.4135
-0.895631
95.2102
66.5795
114.536
15.2422
1.52935
113.757
39.7081
27.8058
56.4461
26.045
17.8805
3.26999
118.843
5.02459
107.526
-11.4766
79.5065
85.0386
49.8552
14.3192
75.4129
95.3682
-3.60718
52.7802
75.4865
-3.01397
47.7241
75.6567
19.7042
31.1566
113.482
75.6788
58.7274
69.2386
110.15
75.648
38.3054
89.7567
61.3936
18.4086
3.88954
51.2745
16.6278
26.8141
108.605
103.388
-0.441392
6.18788
6.96901
64.035
89.931
76.653
73.8264
108.443
70.5579
66.8498
48.8029
22.2013
-20.3858
7.60867
104.056
80.1871
0.329722
56.1654
87.9902
41.8782
-2.72484
57.6985
85.4168
63.457
78.0585
68.2307
72.3019
158.803
53.692
66.7915
12.834
2.41794
76.8962
97.8271
114.475
18.2847
-2.21655
112.002
65.4036
11.7744
4.56603
-50.6995
67.2061
2.11292
28.8286
27.9711
76.4643
115.95
-25.3976
1.6819
65.2712
20.0224
65.9063
115.678
78.1598
77.5758
108.631
76.2095
15.6451
102.82
20.4527
104.698
76.5437
16.9272
176.66
39.2997
6.57871
27.5347
88.686
77.5482
-0.537603
43.9928
84.6395
76.0304
-6.6498
76.8532
52.9591
33.2839
113.778
-0.100585
75.8804
12.3018
66.3794
4.12844
115.836
98.4268
-10.8413
44.5445
19.1688
16.5106
108.339
75.0268
34.797
109.237
22.3917
118.023
24.6711
109.504
87.2705
0.087404
88.75
10.0444
61.2787
3.01468
-1.94479
-8.91479
1.98082
113.189
76.3268
51.4332
56.3765
45.8832
109.267
-8.55418
28.5151
66.6356
25.8065
20.4862
76.6668
47.1971
-8.4482
105.117
119.293
1.19422
-1.32155
69.0247
46.9568
64.6743
67.9992
75.3969
63.9586
-0.966707
16.6415
42.4181
94.4357
4.03799
-3.15398
-20.3319
-10.5969
113.202
115.771
86.0114
108.28
116.209
-2.92035
114.155
81.4272
317.639
16.6274
-6.23161
75.0169
-0.413138
-2.25506
116.995
75.8909
27.7733
75.6711
-8.74682
81.8212
59.6711
110.401
90.9086
-3.92564
19.9483
76.415
6.18601
75.6079
42.2067
10.7923
75.2222
-3.77971
-1.792
62.4762
-12.6307
67.1525
-2.19317
100.663
-9.38482
95.9382
16.637
59.2278
114.037
54.9747
1.3754
101.769
109.053
-7.13057
105.405
59.9536
38.1084
70.4245
-3.01688
-2.20989
115.657
58.2553
126.122
74.5693
78.1172
-5.9469
73.2301
-9.49851
75.772
105.075
38.1801
116.775
75.387
79.7469
30.1429
83.254
-6.88758
3.03064
26.0851
-15.472
72.5877
7.34237
0.172965
71.7496
62.3052
-43.6837
76.4819
15.6896
92.3443
30.0484
16.3756
109.629
25.6288
50.4326
-7.23024
109.704
103.208
104.363
6.63885
66.5363
108.649
87.6338
68.1051
78.5677
-2.61794
54.3089
1.28768
3.01262
73.9583
74.9525
106.593
77.7587
8.48116
75.8659
92.5162
-1.06362
77.116
115.494
69.0123
-3.2997
117.054
-2.12204
125.423
-9.60804
20.2555
18.3041
73.787
-2.96123
113.623
-1.86678
-95.6266
96.3488
82.0575
4.03159
-53.4078
-10.8177
135.793
75.4888
104.204
59.3066
74.5417
15.2595
15.7381
69.9602
61.0974
20.8707
51.584
29.1272
41.849
85.5096
9.35217
72.7175
75.2056
60.717
20.634
51.6142
105.046
-4.41885
110.47
41.1542
165.717
23.4518
38.662
92.1831
70.2418
69.3932
29.7898
-41.4971
4.9033
85.7899
76.2564
75.6275
110.328
62.5925
102.372
65.261
76.3173
95.8949
91.206
19.3618
88.6687
333.652
-81.0096
5.14021
59.9908
112.549
63.431
109.246
76.6288
59.6013
60.7837
-6.48395
81.537
23.688
-2.62301
51.1656
87.2765
87.6031
20.4249
11.1926
85.7901
14.8765
30.0586
-9.8567
60.7861
85.1749
141.08
99.565
104.195
25.6986
25.7763
111.849
90.7782
-21.477
-5.31516
26.8132
29.2646
51.2261
45.4222
83.227
106.499
5.41996
35.1967
20.7771
98.5336
77.9607
5.82731
73.5777
11.8264
11.876
68.7281
67.8423
-5.63571
65.2075
214.341
67.0167
0.506161
98.0214
112.981
52.716
21.6295
103.862
114.396
21.4546
75.4805
-6.99651
49.1311
73.5086
28.7168
55.0556
65.3536
-2.74716
114.109
22.1308
14.0254
64.7281
72.6088
-1.7634
2.27974
79.9972
2.9586
102.998
0.559156
-0.519974
109.834
46.4603
75.4977
109.464
28.9304
15.0244
106.082
34.6933
66.5889
61.8378
3.20367
82.1588
1.67671
-16.3013
88.5479
19.258
115.365
44.6412
91.8431
-9.42404
17.3818
46.3821
84.4847
83.4438
95.248
69.2616
70.3069
116.654
19.4185
63.1553
-3.69836
93.2116
67.3583
36.9135
97.8759
21.6278
11.5052
76.8969
56.0359
50.2918
69.9531
10.3988
-11.2613
99.8839
74.0852
15.2536
124.194
71.4113
-0.571906
76.9011
85.0058
94.3681
85.3323
21.6023
109.64
70.8257
164.08
-2.6572
25.9078
4.92986
21.9066
77.9247
20.0115
72.0588
-6.15379
19.9311
-5.59204
72.3133
114.879
75.5037
3.48365
17.4048
83.0091
45.4118
73.2047
-2.92844
-1.90177
67.4759
114.109
58.4699
111.382
-0.0123416
53.1244
4.45017
45.9108
113.841
115.662
81.0605
82.9772
48.9393
17.4427
15.8349
113.706
43.6201
66.6245
51.562
62.491
20.3231
15.2043
2.14871
-9.97387
6.13943
75.8563
42.4045
105.924
97.471
110.48
20.8043
-2.98394
109.745
14.2904
-0.807524
-8.61848
0.0106308
33.2317
34.7907
39.7958
8.00116
104.594
-5.82964
79.0981
75.8418
20.5931
71.4035
114.59
86.7533
18.5358
78.8493
109.465
9.39099
96.315
51.4482
7.3664
-10.7357
154.931
33.165
86.0597
88.3545
66.7608
38.8687
85.5719
-20.9304
61.5506
114.817
-7.93754
7.92245
7.13245
-28.1405
75.8751
2.39319
18.7856
114.744
20.7409
17.5714
76.3488
115.829
109.317
60.3831
6.27676
69.8824
45.9124
39.2715
75.805
90.7937
28.7635
-11.715
87.2878
76.3267
8.95801
-2.42244
78.6363
108.182
113
20.3317
67.3518
97.3577
-9.00096
106.534
-8.30655
32.428
2.4325
132.964
35.1241
24.1546
58.5598
25.8553
2.37237
43.3943
106.049
-4.42913
99.3809
24.6885
119.792
-2.79345
22.4752
-6.25945
47.8075
70.8443
79.4837
27.7575
135.863
-8.88879
93.2181
87.9041
83.3529
89.5997
-25.7423
90.7875
100.505
6.81624
-25.7673
74.3932
173.583
45.3902
-9.31544
85.1007
-7.60464
-2.70782
102.9
63.4249
10.5544
29.0828
215.457
62.07
10.6233
108.1
-10.405
67.9567
2.96061
75.5827
0.337714
61.6144
15.7968
147.753
102.656
25.1173
33.662
77.4842
0.247602
0.203835
93.2481
104.939
62.459
96.6041
73.9452
-11.9602
125.725
69.6314
-8.89075
80.629
-3.46486
61.6481
59.3113
11.9217
47.6549
25.549
105.602
54.4906
32.3009
77.3262
77.0123
4.483
65.1436
67.3066
72.063
6.69149
89.496
-11.7809
-6.52117
61.2492
-2.59583
60.0633
122.505
1.8826
75.0167
79.5979
79.3459
74.3742
-9.97495
44.7705
1.85546
11.7914
29.7906
-0.197641
20.1322
29.8395
107.643
52.5737
26.1056
-23.2019
109.758
-41.3543
29.1812
64.1227
24.6346
91.9214
47.2347
68.5042
9.95044
76.6315
10.2962
35.1294
83.9192
62.2234
69.5351
31.1449
33.8488
59.2526
60.9001
81.3735
-2.54531
93.5824
18.3837
105.662
39.2251
-8.17386
43.052
69.8235
77.1905
1.00634
70.4414
63.0618
-31.271
79.8317
78.0212
-103.834
96.1189
22.244
5.70254
86.5533
62.4894
80.9848
115.324
86.8625
49.8567
18.0246
133.172
90.4962
61.5907
-120.834
23.1657
-9.00127
113.882
13.3891
91.1242
82.5668
80.7238
75.7029
24.1592
-11.9731
56.3287
86.9574
76.861
42.3317
82.8847
65.4205
73.9273
75.2897
82.7874
30.874
105.868
146.724
19.9837
61.6622
40.497
75.5451
37.8549
62.2685
-0.961623
27.3743
0.707205
66.6847
114.455
2.01596
116.202
15.708
37.6776
108.931
-8.60116
54.0579
54.7379
8.88615
19.4179
57.5042
106.23
94.2703
28.4016
11.7814
98.6375
107.667
-10.2123
65.577
73.4408
-20.4538
85.1583
28.1545
103.311
88.37
-82.3761
-19.5253
16.9852
75.6763
47.7561
110.419
-12.3149
60.9746
88.7541
115.648
19.5117
66.0555
13.7115
65.1573
76.6204
102.666
78.7218
103.876
113.339
112.978
-0.253087
116.222
73.1122
40.8225
-10.5351
130.62
60.6736
64.709
65.6722
85.3733
61.5829
89.3283
37.9973
31.0724
115.789
63.2133
-1.00338
61.8017
61.3189
4.40096
8.215
0.501204
52.3463
240.376
68.8353
103.921
50.3314
13.1123
65.7655
87.7903
89.5647
-5.83945
73.2753
77.3321
123.76
66.9127
64.2157
1.23006
20.3333
81.727
116.972
-7.04248
10.2297
0.23264
-0.648731
-108.107
41.369
92.7855
92.1875
75.5141
1.5358
17.4062
-3.06739
41.8497
6.65558
12.6678
-7.6967
-9.2722
112.311
54.4259
-10.2855
67.0878
34.0118
92.7401
40.3463
43.9017
86.5475
69.9738
113.866
27.2504
11.051
36.5608
73.1128
65.8731
63.2254
-0.212306
112.531
39.5754
-45.0215
113.262
112.205
119.498