/*--------------------------------*- C++ -*----------------------------------*\
| =========                 |                                                 |
| \\      /  F ield         | OpenFOAM: The Open Source CFD Toolbox           |
|  \\    /   O peration     | Version:  4.0                                   |
|   \\  /    A nd           | Web:      www.OpenFOAM.org                      |
|    \\/     M anipulation  |                                                 |
\*---------------------------------------------------------------------------*/
FoamFile
{
    version     2.0;
    format      ascii;
    class       surfaceScalarField;
    location    "400";
    object      phi;
}
// * * * * * * * * * * * * * * * * * * * * * * * * * * * * * * * * * * * * * //

dimensions      [0 3 -1 0 0 0 0];

internalField   nonuniform List<scalar> 
21699
(
-0.0213409
-0.00510051
0.0264414
0.0189071
0.00456513
-0.0234722
-0.0368256
0.0154847
0.0246756
-0.00576848
-0.0270734
0.00462562
0.0224478
0.0119564
-0.0160594
0.00410304
-0.0343501
0.0222657
0.0120844
0.00150891
0.00736455
-0.00887347
-0.00525552
0.00473137
0.000524153
-0.00255654
-0.00692571
0.00948225
0.0356022
0.00251303
-0.0381152
-0.0192006
0.0165726
0.002628
0.0125992
-0.0270773
0.0144782
-0.00996802
0.00818867
0.00177935
-0.0106451
0.0312098
-0.0205647
-0.0429166
0.00898433
0.0339323
0.0821318
-0.0757575
-0.00637426
0.037943
-0.0166584
-0.0212846
0.0157379
-0.0263829
-0.000238401
-0.000669918
0.000908319
0.0321813
-0.016856
-0.0153253
0.00590268
-0.00212592
-0.00377676
0.0244065
0.0211477
-0.0455542
0.010557
0.0216243
0.0519032
-0.016301
-0.0587398
0.0408011
0.0179386
-0.00114671
0.0472004
-0.0460537
0.0296202
0.0525115
-0.0116282
-0.00757242
-0.00234075
0.00472124
-0.00238048
0.00259392
-0.00302634
0.000432417
-0.0554053
0.0212342
0.0341711
-0.00730638
-0.019767
0.0321104
-0.0227658
-0.00934466
-0.0239149
-0.0180292
0.0419441
-0.0332801
0.0366057
-0.00332566
0.0537996
-0.0293931
-0.00778639
0.00929531
0.0390871
-0.030907
-0.00818007
0.00290991
-0.00651403
0.00360412
0.0485252
-0.0496719
0.000980269
-0.00332102
0.00868819
0.0337962
-0.0424844
0.00699779
9.09183e-05
-0.0070887
-0.00369892
0.0156553
0.0203716
-0.00733967
-0.013032
-0.0479215
-0.0108182
-0.000204842
-0.00559424
0.00579908
0.00228764
-0.00386744
0.0015798
0.00283112
0.00307156
-0.048364
-0.00704123
0.00673213
-0.0043116
-0.00242052
-0.00276218
0.000388375
0.0023738
-0.00654589
-0.0267342
-0.000604506
0.00289215
0.0154175
0.0236696
0.0233793
-0.0146689
-0.00871045
-0.0225345
-0.0118156
-0.0394631
-0.00131782
0.0407809
0.00470191
-0.00122334
-0.00347857
-0.00869936
0.0458249
-0.0371255
-0.0296592
0.0115874
0.0180718
0.0450737
-0.0371274
-0.00794631
-0.0141848
0.0450328
-0.0363446
-0.000592765
0.0215712
-0.0209785
-0.0178394
0.0304386
0.0003372
0.00436471
0.00391955
-0.000395748
-0.0035238
-0.0139811
-0.0128355
0.0268166
0.00304884
0.000870705
0.0320471
-0.0509215
0.0188744
0.0321288
-0.015922
-0.0162067
-0.0102947
-0.00491115
0.0152058
0.0367779
-0.0686939
0.031916
0.000646333
0.0237459
-0.0243922
0.0367779
0.00431219
-0.0401753
0.000712233
-0.00429003
0.00397066
0.00031937
-0.0449269
0.00201033
0.00777558
-0.0316905
0.0149554
-0.0103975
-0.00455796
0.00834009
-0.00543017
0.00324443
0.00562851
-0.00887294
0.0180534
0.014057
-0.0157676
0.0167439
-0.000976266
0.00222845
0.00450368
0.0342978
-0.00763079
-0.026667
0.0159571
0.0161716
0.0351643
0.00164281
-0.0368071
0.00439548
-0.00309444
-0.00130104
0.0139163
0.00946296
0.0206842
0.0172588
0.0421958
-0.0245789
-0.0176169
-0.000846776
0.0017341
-0.000887327
0.0382866
-0.0167547
-0.0215319
-0.00500549
-0.0523212
0.0573267
-0.045972
0.0427971
0.00317492
0.00102514
-0.0128314
0.0118063
-0.0486672
0.063344
-0.0146769
-0.0348683
0.0168395
0.0180288
-0.0093004
-0.0144185
0.0237189
0.0157391
0.00923139
-0.0249705
-0.062396
0.0378091
0.024587
-0.0203124
0.0278589
-0.00754649
-0.0778831
0.0323297
0.0455534
0.00331004
-0.00577573
0.00246569
-0.0182382
0.0228638
-0.0364018
0.051367
-0.0149653
-0.0355158
-0.0167341
0.0247173
-0.0320045
0.00728718
-0.0488536
0.0684692
-0.0196156
0.0483368
-0.0362231
-0.0121137
-0.00730172
-0.0275666
-0.00820468
-0.00361471
0.0118194
0.0324968
-0.0148858
-0.0176109
-0.00456588
0.038433
-0.0338671
0.00162165
-0.0026797
0.00105805
0.00587957
0.000812099
-0.00669167
0.0346172
0.0159732
-0.0505905
-0.00394961
-0.014667
0.0186166
0.0206021
0.0122424
-0.0328445
0.0261903
0.0188834
0.050648
-0.0306982
-0.0199498
-0.0230138
-0.0428948
-0.0743882
0.0411412
0.033247
0.00561773
-0.00736759
0.00174985
0.0177503
-0.0388544
0.021104
-0.0213312
0.0149828
0.00634844
0.0198167
0.0285326
-0.0483493
-0.018001
0.0125331
0.00546792
0.0210915
-0.0174471
-0.00364433
-0.000173922
-0.0180643
-0.00554654
0.0404563
-0.0349098
0.00034628
-0.000851218
0.000504938
-0.0181917
0.0380703
-0.0198786
0.0483934
-0.0332252
-0.0151682
0.0260659
-0.0133467
-0.0127193
-0.034174
-0.0363973
0.0705712
-0.018815
0.0347745
-0.0159595
0.0460908
-0.0117821
-0.0343087
-0.00538562
0.00518078
0.00486423
-0.0368403
0.0319761
-0.0456906
-0.0286975
-0.0274795
0.00427118
0.0232083
0.0315321
0.00224533
-0.0337775
-0.00382022
0.00233618
0.00148404
-0.0285664
0.0228622
0.00570417
-0.035002
0.0146896
-0.018975
-0.0319855
0.0509605
0.00731352
0.000725687
-0.00803921
0.0253431
0.0321551
-0.0574982
-0.0211365
0.0174375
0.00224861
0.000101369
-0.00234998
-0.0602571
0.0445736
0.0156836
-0.0242307
0.0178208
0.00640993
-0.00199409
-0.000530609
0.0025247
0.0481855
-0.00303306
-0.0451525
0.0140531
-0.0846615
0.0706084
0.0467725
-0.0323072
-0.0144653
0.0147763
0.0367095
-0.0514858
0.0328869
-0.0415863
0.00646252
0.0250696
0.0107502
0.0181653
-0.0289155
0.00181548
-0.00303036
0.00121488
-0.00402065
-0.0491322
0.0531529
-0.000671433
0.00766922
0.0299134
-0.0242367
-0.00567667
0.0127333
0.0255532
-0.0291523
0.0613692
-0.0322169
-0.010476
0.00661294
0.00386309
0.0039497
-0.00746939
0.00351969
-0.000282774
-0.00144446
0.00172724
-0.00398229
0.00364704
0.000335256
0.00617208
-0.00339054
-0.00278154
0.0246339
0.0256153
-0.0502491
-0.00404732
0.00177086
0.00227646
0.0119163
-0.0316165
0.0197002
-0.0700018
0.0455976
0.0244042
-0.0435731
0.0160937
-0.0337226
0.0449525
-0.0112299
-0.0211781
0.00946536
0.0117127
-0.0151764
0.000998324
0.0141781
-0.00134698
0.0131169
-0.0117699
0.000846479
1.95195e-05
-0.000865998
0.00941221
-0.00616778
0.0644322
-0.0365376
-0.0278946
-5.71683e-05
-0.0016475
0.00170467
0.0230948
-0.0292458
0.00615107
0.000612141
-0.000830969
0.000218827
-0.0730737
0.0424016
0.0306721
-0.00601904
0.00324195
0.00277709
0.0183699
-0.0362094
-0.00419677
-0.00201009
0.00620685
-0.0571826
0.0591709
-0.00198827
0.00401337
-0.00141945
-0.0196446
0.00678574
0.0128589
-0.000541872
0.00333943
-0.00279756
-0.00322395
-0.000596274
0.0486802
-0.0548026
0.00612241
0.00953824
-0.0448911
0.0353528
-0.0517598
-0.0183836
0.0701434
-0.0537115
0.0347366
0.0471379
-0.0156761
-0.0314618
-0.00594749
0.000983502
0.00496399
-0.0467294
0.0401371
0.00659221
0.0299929
-0.034759
0.00476614
-0.0214176
0.0554296
-0.0340119
-0.00897829
0.022815
-0.0138367
-0.0492899
-0.00139077
0.0506807
-0.046264
0.00192553
0.0443385
0.014345
0.0324645
-0.0468095
0.0289276
-0.0223017
-0.0066259
0.00743733
0.0347499
-0.0421872
0.0250684
-0.0414864
0.016418
-0.00871054
-0.0348626
0.0039811
-0.00463825
0.00065715
0.000728502
-0.000154363
-0.000574139
0.000434276
-0.00307332
0.00263904
-0.00587945
-0.0272865
0.0331659
0.0384588
-0.0163405
-0.0221182
0.0457767
-0.0280264
-0.0459391
-0.0164569
-0.0193019
0.0398434
-0.0205414
0.00248864
-0.0511571
0.0486684
-0.020312
-0.00934723
-0.000643152
-0.00210833
0.00275149
0.0651483
-0.0651483
0.00445172
-0.0533053
0.00347853
0.0249707
-0.0284493
0.024028
0.017485
-0.041513
-0.0315484
-0.00334552
0.0348939
-0.0430011
0.00603239
0.0369687
0.044883
-0.0128359
0.0106203
-0.00781878
-0.00280147
0.0242638
-0.0231165
-0.00114735
-0.00151818
-0.00234926
0.0404218
0.00574583
-0.0461676
0.0246557
0.0122497
-0.0369055
0.0131511
0.0050224
-0.0181735
-0.0499861
-0.000435084
0.0504212
-0.0262783
0.0150306
0.0112477
-0.00373351
0.00471378
-0.0174417
0.00167408
-0.0124626
0.00425794
-0.0680133
0.0509945
0.0170188
0.0560918
-0.0116453
-0.0444465
0.0832181
-0.039696
-0.0435221
-0.00696254
0.0184135
-0.011451
-0.000402454
-0.00282149
-0.0146352
-0.0313369
0.0548995
-0.0453613
-0.0322414
0.026254
0.00598736
0.004529
0.000143871
-0.00467287
0.00921959
-0.00828621
-0.00093338
0.0165964
0.013317
0.0437303
0.0394878
-0.0547775
0.0183757
-0.0672402
0.0581966
0.0090436
-0.010958
-0.0439328
0.0548907
0.0400894
-0.0352252
0.0555252
0.000566642
-0.00954509
0.0357633
-0.0262182
0.0213266
-0.0216227
0.000296058
-0.0556777
0.0771996
-0.0215219
-0.0421178
0.0787632
-0.0366454
0.0190033
-0.00585224
0.00313289
-0.000947206
-0.00218568
-0.00829631
0.00932145
0.0778316
-0.0507569
-0.0270747
-0.00115705
-0.0315054
0.0326624
-0.0060521
-0.00529814
0.0113502
0.0162697
-0.0189689
0.00269918
-0.066974
0.0350409
0.0319331
-0.0194848
0.00660213
0.0128826
0.0083023
-0.00474913
-0.00355317
0.00421106
0.00140667
0.0830714
-0.0517814
-0.03129
0.00334858
0.00749402
-0.0108426
-0.0133655
0.0252818
0.0368222
-0.0561115
0.0192893
-0.00101711
-0.0327055
-0.0186043
0.023835
-0.00523067
0.0594984
-0.0226762
0.0348589
0.0429726
0.0349232
-0.0167121
-0.0182112
-0.00296399
0.014754
-0.01179
0.0649001
-0.0492763
-0.0156238
-0.00423405
-0.00108825
0.0053223
0.0233619
0.0115613
-0.00457826
-0.0416664
0.0462447
-0.0201787
0.0212406
-0.00106184
0.00636987
0.000717399
-0.00708727
-0.0010002
-0.00048906
0.00148926
0.0488221
-0.0291978
-0.0196242
-0.00591795
-0.000327891
0.00624584
0.0507034
-0.0695244
0.018821
-0.00939993
0.0248209
-0.015421
0.0281148
-0.0636306
0.0444084
0.038663
-0.00500878
0.000774729
0.00701659
-0.0105051
0.0034885
-0.00363596
-0.00386814
0.00750411
-0.0339372
0.0616781
-0.0277409
-0.0395565
0.0276313
0.0119252
-0.0103884
-0.00761267
0.0471274
-0.0327823
-0.0219489
0.0188472
0.00310168
0.0509283
-0.0575889
0.0066606
0.0551262
-0.0297831
-0.0348736
0.0525681
-0.0176945
-0.0221413
0.060828
-0.0386867
0.0533206
0.00410656
-0.0574271
-0.000702931
-0.00302447
0.00372741
0.0202846
-0.0116545
-0.00863012
-0.0751332
0.0457859
0.0293473
0.0327732
-0.051878
0.0191048
-0.00354871
0.0166587
-0.01311
0.0660967
-0.0414277
-0.024669
-0.0013084
0.000461624
-0.0170463
0.0146158
0.00243054
0.0059076
0.00471266
-0.000141881
-0.000400774
0.000542654
-0.00542331
0.0630675
-0.0576442
-0.0372164
0.0313213
0.00589509
-0.0313671
-0.0308863
0.0622535
-0.00101859
0.00322184
-0.00220324
0.0764066
-0.0485843
-0.0278223
-0.00410742
-0.0367454
0.0408528
-0.0168273
0.0701478
0.00768524
-0.00308885
-0.00459639
-0.000289049
1.55304e-05
0.000273518
0.074502
-0.0617126
-0.0127894
-0.0585548
0.0673049
-0.00875002
0.00922204
0.0232747
-0.0764814
0.0560366
0.0204447
0.0309308
-0.0730485
-0.0152137
0.0196316
-0.00441783
0.0137795
-0.0167965
0.00301701
-0.000176896
0.00986443
-0.00968754
-0.0359069
-0.0371668
0.00969618
0.0159156
-0.0256118
0.0125558
-0.0588198
0.0221641
0.00390183
0.00391205
0.00438068
-0.00829273
0.00677424
-0.0230299
0.0162556
-0.0665357
0.029066
0.0374697
0.000400095
0.0447904
-0.0451905
0.00241173
0.00198375
0.0329628
0.0319373
0.00470763
-0.000156183
-0.00455145
-0.00505055
0.0046548
0.0299425
-0.070927
0.0409845
-0.0792031
0.0656386
0.0135645
-0.0387432
0.0284932
0.01025
-0.0292517
0.0469826
-0.0177309
0.0242899
0.0284188
-0.0527087
0.0135922
-0.0561771
0.0425849
-0.00918317
0.000927993
0.00825518
-0.0416722
0.037094
0.00441596
0.000113042
0.0686388
-0.0265577
-0.0420811
-0.0116099
0.0343329
-0.022723
-0.00247616
0.00291043
-0.0600875
0.0491295
0.0327419
-0.0340598
0.0216564
0.0205394
0.00362526
-0.00426841
0.0749017
-0.0694712
-0.00543048
-0.0213162
0.0384163
-0.0171
-0.0241848
-0.0438285
0.000943335
0.0221514
-0.0106731
0.0258363
-0.0151632
0.0289337
-0.0131946
-0.0212696
0.0514036
-0.030134
0.0533403
-0.0169312
-0.0364091
0.0118355
0.00882191
-0.0206574
0.0142711
-0.0378625
0.0235914
0.0279367
0.016994
-0.0449307
-0.0258204
0.0137979
0.0120225
-0.0299019
-0.00233943
0.00811383
0.0121732
-0.0202871
-0.0509346
0.0113658
0.0395687
0.0220018
0.0464674
-0.00904489
-0.00443176
0.0134766
-0.0303069
-0.00651863
0.0189116
-0.0536272
0.0347156
-0.0039829
0.000909585
-0.00976261
0.0140184
-0.0153654
-0.0214577
-0.0285672
0.0500249
-0.0386588
0.0669575
-0.0282987
-0.0517598
-0.0214011
0.0281754
0.0346791
0.0137143
0.0307888
-0.0666956
-0.0563109
0.0212925
0.0350184
-0.0399264
0.0114532
0.0284732
0.00131001
0.0216609
-0.0229709
0.00165692
-0.00965191
0.00799499
0.00838508
-0.0048565
-0.00352857
-0.0119204
-0.0170272
-0.00263692
0.0196642
0.0501664
-0.0137353
-0.0364311
-0.0111452
0.00568934
0.00545588
-0.024936
-0.0542671
-0.03443
0.0614413
-0.0270112
-0.049128
-0.00471729
0.0538453
-0.0364111
0.0425229
-0.00611183
0.0280912
-0.00748902
0.00282139
-0.00352432
-0.0126263
0.0165181
-0.00389183
0.0224392
0.0436575
-0.0352193
0.0352592
-3.99043e-05
0.0395133
0.0111348
0.0020889
-0.0282846
0.0261957
0.00339387
0.0151137
-0.0185076
0.0254784
-0.0641372
0.0378645
-0.000141745
-0.0377228
0.0122316
-0.0123905
0.000158976
0.00998909
-0.00514278
-0.0048463
0.0156574
-0.013369
-0.00228843
0.00978402
-0.0312044
0.0214204
4.27225e-05
-0.012669
0.0104746
0.0356162
-0.00832246
0.0133103
-0.00498779
0.0511764
-0.0265426
0.0186906
0.0102502
-0.0289408
0.0567614
-0.0621847
-0.017924
0.00280102
0.0151229
-0.0470334
0.0386157
0.00841763
-0.0301299
0.0205081
0.00962183
-0.00119836
-0.00150082
0.00269918
0.00949119
0.0205017
-0.00958217
0.0346506
-0.00405405
0.0299327
-0.0258787
-0.0398956
0.0176709
0.0222247
0.0294846
0.0118078
-0.0412924
0.0184187
-0.0372336
-0.0517119
0.0377534
0.0139585
0.000871113
-0.0144014
0.0135303
-0.00494318
0.00495092
-7.7325e-06
-0.0158014
0.034492
0.082227
-0.0428051
-0.0394219
-0.00338406
0.0328687
0.0539819
0.0224247
-0.0288304
0.0054961
0.0233343
0.0109505
-0.0502683
0.0393178
0.00751601
0.00743942
0.0179285
-0.0362628
0.0183342
0.00532219
0.000849882
-0.0045975
0.0174456
-0.0128481
-0.00817571
-0.0110835
-0.028473
0.0227481
0.00232507
-0.0250732
0.00760116
-0.0239867
0.0163856
0.0133205
-0.00992666
0.0328831
-0.0622355
0.0293524
-0.026176
-0.0137196
0.0435463
0.0208858
0.0406409
0.00613156
-0.0359994
0.054911
-0.0341879
0.052361
-0.0181731
0.031427
0.00287077
0.000369286
-0.000872505
0.000503219
-0.0146579
-0.00552081
-0.0024141
-0.00284142
-0.0539676
0.0541383
-0.000170719
-0.00243985
-0.00246378
0.00490363
0.0455643
-0.0150178
-0.0305466
-0.0126386
0.0070838
0.00555484
0.0213178
-0.0308628
0.049398
-0.0310649
-0.0183331
-0.0250002
0.0244075
-0.0424922
-0.0105119
0.0530041
-0.0484164
0.0380992
0.0103172
0.00764175
0.000891848
-0.0085336
-0.075712
0.00509124
0.0706207
-0.0276922
0.0125041
0.0151881
0.051036
0.031191
0.0613008
-0.037011
-0.000158442
-0.0266417
0.0268002
-0.0119122
0.0153859
-0.00347369
-0.00127573
-0.00366745
-0.0655588
0.0346146
0.0309443
0.00126188
-0.000313668
-0.000948214
-0.00135429
0.00140177
-4.74796e-05
0.0021774
0.047989
0.0279774
-0.0181934
0.00161307
-0.00167024
-0.025918
0.00853131
0.0173867
0.0457226
-0.0444487
-0.00127384
-0.00765422
0.0200601
-0.0124059
-0.0247784
0.00685441
0.00693406
8.25343e-05
0.0228841
0.0226196
-0.0455037
0.00195879
-0.0119268
-0.00276382
-0.0442695
-0.00237444
-0.00825449
0.0106289
0.00408883
-0.002034
-0.00205482
0.0107911
0.0101099
-0.020901
-0.00793294
0.0152924
-0.00735946
0.0172737
0.0500826
-0.0133363
-0.0367463
-0.00147373
0.00735331
0.0122577
0.0286901
-0.0409478
-0.00297307
0.00944399
-0.0255492
0.0161052
0.0623185
-0.0559456
-0.00637297
0.036659
-0.0640646
0.0274056
0.0455194
-0.0411793
-0.00434002
0.0127112
-0.0923507
0.0796395
0.0289716
0.0181663
0.00141418
0.02597
-0.0273842
0.0242087
-0.0358186
0.0579144
-0.066231
0.00831655
-0.00642231
0.0244757
0.0102746
-0.0171475
0.00687291
-0.0275006
0.0397583
-0.0680483
0.058839
0.00920925
-0.0396139
-0.0154826
0.0550966
-0.0136764
0.0271618
-0.0134854
-0.0397624
0.0240863
0.00273126
-0.00225813
-0.000473132
0.000230638
-0.0215619
0.0517598
0.0247403
-0.0765001
-0.0525524
0.017372
0.0351803
0.0692549
-0.0207297
0.00867098
-0.00475893
-0.0150207
0.0297491
-0.0147284
0.00155194
0.0363126
0.00670749
0.0319082
-0.0308155
-0.0207168
0.055334
0.0138756
-0.0104346
-0.00344099
0.0219649
-0.00547177
-0.0164932
0.0333789
0.014022
-0.0474009
0.00912298
-0.0224823
0.0133593
-0.000195683
0.000807824
-0.0049899
0.00786931
-0.00287941
0.0271298
-0.0271298
0.0734011
-0.0601882
-0.0132129
0.0679923
0.00948893
-0.0774813
0.000488478
0.00349262
-0.00444284
0.00791131
-0.00346847
-0.0221224
-0.0465715
0.0472433
-0.0453178
-0.000976047
-0.00331398
-0.0239425
-0.0248313
0.0487737
0.0219014
-0.0245687
0.0026673
0.000943684
-0.00653793
-0.0285265
0.0174032
0.0111233
0.0261267
0.0123321
0.00711457
-0.0435257
0.0668898
0.00761218
-0.0164494
0.005452
0.0109974
-0.0202724
0.0569314
0.00273536
-0.000682255
-0.0020531
-0.0533606
0.00664643
0.0467141
-0.0739128
0.0122002
0.0317536
0.0189091
-0.0506626
-0.00867178
0.00203355
0.00663824
-0.0203207
-0.0082457
0.0189225
0.0100051
0.0486412
-0.0288244
-0.0342089
0.0529935
-0.0187846
0.0222827
-0.0328271
0.0105444
-0.00798473
-0.0413052
-0.00800687
-0.00844253
0.0285208
0.0374792
-0.00342827
-0.00259077
0.0371311
0.00977015
-0.0469013
0.0428604
-0.0454807
0.00262034
0.0727609
-0.0510447
-0.0217162
-0.00250108
0.0126187
-0.0101176
-0.0177585
0.0356871
0.0164525
-0.0333803
0.0169278
0.0552954
0.000170059
-0.0554654
-0.00447033
0.0551737
-0.0376893
-0.00105387
0.0241228
-0.0414976
0.0173748
-0.0138466
0.00688408
-0.0427251
0.0314309
0.0112943
-0.0353792
0.0463297
0.044907
-0.0115281
0.00556956
0.0628873
-0.0684568
-0.0547434
0.00607626
0.00647511
-0.0167698
-0.00861089
-0.0423237
0.0207701
0.0108065
-0.0315766
0.000463806
-0.0194875
0.0190237
-0.00435286
-0.0185929
0.0229458
-0.0443357
-0.0128869
0.0572226
0.0244085
0.00843505
-0.0328436
-0.00139896
0.0424972
-0.0410982
-0.0200648
-0.049937
-0.0377293
0.0381294
0.0191208
0.0162523
-0.0353731
0.0191675
-0.00837636
0.00498514
-0.00221478
-0.00277036
0.00408736
-7.88249e-06
-0.00407947
-0.042737
0.0294626
0.0132744
-0.00363935
-0.00503243
0.0223922
0.0285361
-0.013335
0.0224563
-0.00912134
0.0124334
-0.0329923
0.0205589
-0.00114002
-0.0405264
0.014865
-0.0427731
0.0279081
0.0360486
0.0188509
0.0206484
-0.000363789
0.00440499
-0.00179408
-0.00261091
0.027829
-0.0371208
0.00929178
0.052923
-0.0270308
-0.0258922
-0.0455216
0.0608059
-0.0152843
-0.0269139
0.0152937
0.0116202
0.0245401
-0.014139
-0.0104011
-0.0159422
-0.0346288
0.050571
-0.0287737
0.00912731
0.0196464
-0.00612833
-0.0026793
0.00880763
-0.0447001
0.0395995
0.000562891
-0.00303905
-0.0246349
0.0266553
-0.00202039
-0.0451281
0.014607
0.0305211
0.0530718
-0.00622456
-0.0468472
-0.00375099
-0.020393
0.024144
0.00552277
0.0222044
0.0233599
0.0842194
-0.0876175
0.00339815
-0.000732097
0.00107838
0.0460426
-0.022534
-0.0235086
0.0416551
-0.0044569
-0.0371982
0.00501169
0.0163149
0.0364908
-0.0080864
-0.0284044
0.0303929
-0.000639474
-0.0297534
-0.00631099
-0.0148671
0.0368477
-0.00448924
0.0372624
0.00503194
-0.000944587
0.0265225
0.0468787
-0.000164185
-0.00119011
-0.0298172
0.0627003
0.068819
-0.0262911
-0.0425279
-0.000302815
0.00211829
-0.00711139
0.0552969
-0.0130647
0.0321855
0.0278455
-0.0170954
-0.0616743
0.00893958
0.0527347
-0.0441715
0.0430315
0.00567671
0.0612131
-0.0238677
-0.00304618
-0.0010727
-0.0077033
0.008776
0.0108202
-0.0400826
0.0292624
-0.0396393
0.0183588
0.0212805
-0.00322866
0.00476214
-0.00153348
0.00077527
0.0168414
-0.0176166
0.0162697
-0.034908
-0.00223062
0.0371386
0.0050264
-0.00209291
-0.00293349
0.00028618
-0.0154626
0.0455246
-0.0243727
-0.0211519
0.0210575
-0.000801511
-0.020256
-0.000102466
-0.00873549
0.0372519
-0.0285164
-0.0036884
-0.0579859
0.0510627
-0.020274
0.0516081
0.000524739
-0.0521328
-0.0189272
-0.0468294
0.0657566
0.000782867
-0.00421114
0.00521366
-0.000560195
-0.00465346
-0.0347895
-0.00150735
0.0362968
-0.00803603
-0.000548616
0.00858465
0.0228243
-0.0154166
-0.00740779
-0.0341057
-0.0110224
-0.00918
-0.00476058
0.0139406
0.0554502
-0.0159369
0.00226779
0.0224495
-0.0624174
0.0732171
-0.0107997
-0.0384445
0.0338786
0.00106435
0.0117522
0.00933926
-0.0160374
-0.00344741
-0.00197897
-0.00206835
-0.0312808
0.0301238
-0.0463337
0.0175033
0.000589611
-0.000382175
-0.000207436
-0.0225185
0.0250308
-0.00251226
-0.0259988
0.0126787
0.0133202
-0.0318215
0.0105053
0.00445578
-0.00689233
0.00243655
0.000459018
-0.000499006
3.99878e-05
0.0477183
0.0046902
-0.0524085
0.00285881
-0.00179949
-0.00105932
-0.00302962
-0.00747547
-0.0563109
0.0467218
-0.00193176
-0.0447901
0.0592309
-0.0473453
-0.0118856
-0.0563466
-0.0134126
0.0697592
-0.0317012
0.00706633
-0.00209299
0.000788789
0.00130421
-0.000834735
-0.011907
0.0127418
0.0332281
0.00842699
0.00234139
-0.00450496
0.00216358
-0.0229755
0.0122837
0.0106918
0.0227835
-0.000456588
-0.0223269
0.0158861
-0.00997293
-0.00591316
0.011583
0.030785
-0.042368
-0.00899538
-0.00805096
0.0430858
0.00395016
-0.047036
0.0085517
-0.0375823
0.0290306
-0.0251789
-0.0505331
-0.015339
0.0059391
0.0378132
0.0237245
0.0203659
-0.0440904
0.0316086
0.0335397
-0.0122145
0.00984003
0.0493306
-0.00380603
0.0340794
-0.0113313
-0.0192032
0.00586823
0.00214757
0.00983481
-0.0119824
-0.0104384
-0.0502037
0.0606421
-0.0610914
0.0610914
-0.00782705
0.0438757
-0.0102625
0.0286604
-0.0183979
0.0278388
-0.0385101
0.0106713
0.00647084
0.0428598
-0.0128886
0.00943769
0.00345092
0.0433823
-0.0187265
0.0496012
-0.0178476
0.0242989
-0.0582362
0.00142903
-0.0413554
-0.00164219
0.00559189
-0.0238258
0.00568824
0.0181375
0.000881421
0.00317474
-0.00405616
0.021571
0.0149198
-0.0679715
-0.00991163
0.0199628
0.00658117
-0.026544
-0.0361851
0.022204
0.00233854
0.00596376
0.000561176
0.00217418
0.0432735
-0.00894063
0.0199136
-0.0259717
0.0060581
-0.00423549
0.00754553
-0.0466893
0.0289308
0.0386797
0.00136471
-0.0400444
-0.00159028
-0.0296142
0.0337469
-0.0302684
0.0108526
0.0407555
-0.0295058
0.0120378
0.017468
-0.000262794
-0.00158504
0.00184784
-0.0233505
0.0189976
0.0313527
-0.0123782
-0.0189746
-0.0105694
0.0483785
0.0450748
-0.0314826
-0.0194058
-0.0321483
0.0515541
-0.000921749
-0.00229415
0.0032159
0.00307014
0.0147677
-0.0178378
-0.035591
0.0411451
-0.00555408
0.0158894
-0.0181335
0.00224406
0.0115702
0.0361481
0.008284
0.0127735
3.16843e-06
0.0076638
-0.00766697
-0.0198468
0.0341179
0.0359254
-0.0143995
-0.0215259
-0.00602828
-0.0525266
-0.0021271
0.00268828
0.0239903
-0.00325677
-0.0190449
-0.0669745
0.0512457
0.0157288
0.0123552
-0.0169527
-0.0582486
0.0262355
0.0320131
-0.0571826
-0.0135475
0.0229915
0.0764479
-0.0452842
-0.0311637
-0.0293857
-0.0361732
-0.0343544
0.0243713
0.0099831
-0.00802623
0.0198617
0.00991981
-0.00290193
-0.00701789
-0.0699212
0.034305
0.0356162
0.0237686
-0.031855
-0.0613808
0.0424536
0.0479153
-0.0233459
-0.0245694
0.010037
0.00204085
-0.0120779
0.000839766
-0.0174177
0.016578
-0.030568
0.00232643
-0.0106489
-0.0151785
0.0569623
-0.0417838
-0.0111574
0.0356063
-0.0244489
0.0104383
0.042902
0.0647175
-0.0275864
0.026598
0.0226381
-0.0492362
0.0330317
-0.0331902
0.00690454
2.95164e-05
0.0259581
-0.0676304
-0.0103008
-0.00573655
0.0227977
-0.0214877
-0.0257665
0.00957819
0.0161883
0.0607658
-0.0347505
-0.0260153
0.00534159
0.0046475
0.0319117
-0.0593397
0.0274281
-0.0485258
0.0295027
0.0190231
-0.00941602
0.000174493
0.00924153
-0.0173845
0.00368263
0.0137019
0.0448226
-0.0423339
0.0296526
0.00532567
-0.0349783
-0.0162623
-0.00796837
-0.00803286
0.000166535
0.00013839
-0.000304925
0.0101857
-0.0525524
0.0196038
0.0427148
0.00918384
-0.0121478
0.000755586
0.011476
0.0873802
-0.0401797
0.0269927
-0.049134
0.000379349
-0.000138514
-0.000240835
-0.0348047
-0.00819639
0.0228144
-0.0315499
0.0430802
-0.0193117
-0.00311629
0.00191793
0.0328194
-0.0753116
0.0221328
-0.0253619
0.00322906
-0.0171624
0.00798237
-0.0170133
0.0407378
0.000338863
0.042747
0.0467769
0.00614608
0.00515905
-0.0173698
0.00971556
0.0382955
-0.00821994
-0.0300755
-0.065506
0.0795591
-0.0240142
0.0468983
0.0140199
0.0114436
-0.0254635
-0.0244785
0.00745129
-2.23227e-05
-0.000701089
0.000723411
0.00407754
-0.00155478
-0.00252277
-0.00373853
-0.0151921
0.0189307
0.00408994
-0.00583768
0.00174774
-0.00644766
0.015561
-0.00911333
-0.0195529
0.0127986
0.00675427
0.000361188
0.00060493
-0.000966118
-0.00119222
0.00281387
-0.0198837
0.0517954
0.069966
-0.0492402
-0.0207259
0.00443306
0.00439435
-0.00882741
0.0289637
-0.0213625
0.0124562
-0.0145748
0.00211857
-0.0245511
0.0300472
-0.0126123
0.0367351
0.00919846
0.0118241
-0.0210226
-0.0250966
-0.00328458
0.0283812
-0.0109842
-0.00798468
-0.00167816
-0.0344985
0.0361767
0.00313112
-0.00650399
0.00337286
0.00784509
-0.0295221
0.021677
0.00102555
-0.0022987
0.00127315
0.0215996
0.0168318
-0.0384314
-0.0243748
0.0498427
-0.0300568
-0.0197859
-0.00338859
0.00135459
-0.029718
0.0475374
-0.0178193
0.00399724
-0.0129926
0.0333767
-0.000914929
-0.0324617
0.000380315
0.0058489
-0.00622922
0.0854402
-0.0404946
-0.0449456
0.00652308
-0.0018656
-0.00465749
0.0334057
-0.0135898
-0.0198158
-0.0405575
-0.0259782
0.0233538
0.0240451
0.0231982
-0.0516791
0.0203119
-0.006902
0.0648164
-0.0149267
0.0333762
-0.0184495
-0.0377011
0.0391301
-0.0109134
0.00506307
0.00585034
-0.00528614
0.00622982
0.0483773
0.0358421
-0.0267883
-0.0295671
0.0563554
-0.0154724
-0.0108059
-0.0452109
0.0388553
0.00635566
0.0649341
-0.0509948
-0.0139393
0.0482717
0.00590293
-0.0541747
-0.0139535
0.0225459
-0.00859239
0.00221383
-0.0141596
0.0119457
-0.00983721
0.00620125
-0.0241144
0.052647
-0.0397198
-0.0244472
-0.0151921
-0.0251071
-0.012594
0.0557215
0.0122708
-0.04303
-0.0056246
0.0486546
-0.0221137
-0.00666009
0.0164007
-0.0222802
-0.0364219
0.0492443
-0.0128224
-0.00594902
-0.00214773
0.00809675
-0.061425
0.0108472
0.0505777
-0.00283649
0.00125278
0.00158371
-0.0224537
0.0148475
0.00760619
0.00166986
-0.00206876
0.000398899
-0.0255165
-0.00686118
0.0323777
0.0320903
-0.0359928
0.0039025
0.0152637
-0.0404426
0.0249168
0.00248106
-0.0273979
0.00317114
0.0086239
-0.011795
0.00666169
-0.0134294
0.00676767
0.0355581
-0.0411047
-0.0271176
0.00854825
0.0185693
-0.0060468
0.00375176
0.00229504
-0.0609921
0.0212197
0.0397724
-0.0182179
-0.0125546
0.0307725
0.0272403
-0.0383977
-0.00073486
-0.00135813
-0.0556777
-0.00310114
0.00283835
0.0556284
-0.0481911
-0.0204017
0.0444469
-0.00357245
-0.00247435
0.0414692
0.0349787
-0.000833518
-0.00200297
-0.000975928
-0.00438399
0.00535992
0.0146591
-0.010237
-0.00442207
0.0234841
-0.0224892
-0.000994934
0.0322762
0.00112951
0.046203
-0.00325444
-0.0429486
0.00165709
0.00678268
-0.00843977
-0.0138063
0.0156531
-0.00184679
-0.0258863
0.0229451
0.00294119
0.0285796
-0.0207345
-0.0314796
-0.0309378
0.0131795
-0.00962299
-0.00355652
-0.0229325
0.0191815
-0.00916323
0.0109349
-0.00177172
0.0497899
-0.0405544
-0.00923549
0.0556777
0.0104925
-0.0661701
0.0558201
0.0110507
0.00191661
-0.0129673
0.032083
-0.0650333
0.0329503
0.0166074
-0.0302838
-0.0277257
-0.00949075
0.00348878
0.00256672
-0.0060555
-0.0358535
0.0458199
-0.00996638
-0.0289751
0.0154276
-0.00444619
-0.0353162
-0.00600414
-0.0304178
-0.000884944
0.0382158
-0.0373309
-0.0488831
0.0130296
0.0151331
-0.0269339
0.0118008
0.000813482
-0.00280757
-0.0269573
0.054796
-0.016344
0.00325947
0.0130846
-0.010844
0.0595242
-0.0266179
0.0266179
-0.00331157
0.0221591
-0.0188475
0.0020881
-0.00277035
0.0460799
0.00384331
-0.0499232
0.000432366
-0.0563779
0.00108624
0.000175646
-0.0505159
0.0464085
-0.0409471
-0.0107648
0.0342565
0.0117861
-0.0374696
0.0495436
-0.012074
-0.0359745
-0.0124419
0.00451646
0.0366286
-0.00328186
0.00638764
-0.00310578
-0.0103241
-0.0323395
0.0426636
0.00471176
0.00532528
0.0026164
0.00194971
-0.00456611
0.057516
-0.0456788
-0.0118372
0.00498295
-0.00423422
-0.000748736
-0.0533799
0.00220818
0.00219681
0.0289951
-0.0136014
-0.0153938
0.0263685
0.0191509
-0.0370283
0.0370283
-0.0106547
-0.00679245
-0.00783189
0.0423716
-0.0345397
-0.0242809
-0.00283665
0.00649271
0.0029551
-0.00944781
-0.0161849
-0.0067906
0.0177237
0.0112714
-0.0585698
0.0246386
0.0339311
0.00715758
-0.0415876
0.0447347
0.0426454
-0.0321367
0.012154
0.0199827
0.0229894
0.0264085
0.00234838
0.0336909
-0.0160199
0.0343667
-0.046773
0.0124063
-0.00177397
0.0465649
-0.0447909
-0.0118974
-0.00616527
0.0180627
0.0393224
-0.0385795
-0.000742869
0.0426157
-0.0435006
0.0171302
-0.0149164
0.00845976
-0.0188481
-0.000241784
0.00661166
-0.0547582
0.0401434
0.0146148
0.000501607
-0.000643488
-0.00101699
0.00414988
-0.052605
-0.0388398
-0.00968604
-0.0184508
-0.0237732
0.042224
-0.00490223
0.018065
-0.0131628
-0.0226455
-0.00322212
0.0489447
0.037634
-0.0600025
0.0223685
0.0299886
-0.0403127
0.0382255
-0.0304696
-0.00775594
0.0304191
0.0611053
-0.00960184
-0.0515034
-0.0399584
0.0217404
0.00192675
-0.00256398
0.000637236
0.0115472
-0.00628644
-0.00526077
-0.00932367
0.0174375
0.0208167
-0.0392674
0.0141208
0.0258307
0.024012
-0.0140705
0.00762287
-0.00552962
0.0208233
-0.0279831
-0.00400004
0.0319832
-0.0346444
0.0586724
0.0783079
0.0467428
0.00406188
-0.0508047
0.0516105
-0.0289909
0.0017982
-0.0027454
-0.0502041
0.0159952
0.0533412
-0.043571
0.011961
-0.0111857
-0.0086947
-0.0294326
0.0381273
0.057238
-0.0194845
-0.0475993
0.0338398
0.0137595
0.0170923
-0.0210419
-0.00683419
-0.00709729
0.0139315
-0.00609363
0.00281012
0.00328351
-0.0103936
0.0112086
-0.000815012
0.0115023
-0.0434878
0.00445578
0.0121642
0.0298025
-0.0419667
0.0567151
-0.0741337
0.0174186
0.0434591
-0.0217659
-0.0216932
-0.00197525
0.018564
-0.0101043
-0.0127615
0.0023245
0.010437
0.000693853
-0.00100061
0.000306754
0.0409444
-0.0286947
0.00754472
-0.00551437
-0.00203035
-0.00703471
-0.0566361
0.0636708
0.0271873
0.0108209
-0.0380082
-0.0377306
-0.0009401
0.0386707
0.0366174
0.00646283
0.00557927
-0.00545926
0.0146577
-0.0192603
0.0150347
0.00422559
0.00819414
0.00335307
0.0235952
-0.00131247
0.0124624
-0.0126363
-0.0462042
0.0170063
0.060006
0.0187572
-0.0188002
0.0229852
-0.00418499
0.025766
0.025601
-0.0195073
0.047444
0.0417301
-0.0562673
0.0145372
-0.01666
-0.0143004
0.0309604