/*--------------------------------*- C++ -*----------------------------------*\
| =========                 |                                                 |
| \\      /  F ield         | OpenFOAM: The Open Source CFD Toolbox           |
|  \\    /   O peration     | Version:  4.0                                   |
|   \\  /    A nd           | Web:      www.OpenFOAM.org                      |
|    \\/     M anipulation  |                                                 |
\*---------------------------------------------------------------------------*/
FoamFile
{
    version     2.0;
    format      ascii;
    class       volVectorField;
    location    "400";
    object      U;
}
// * * * * * * * * * * * * * * * * * * * * * * * * * * * * * * * * * * * * * //

dimensions      [0 1 -1 0 0 0 0];

internalField   nonuniform List<vector> 
14558
(
(22.5352 0.234479 -3.67849e-19)
(22.6189 -2.81398 0)
(22.5419 0.257784 2.61625e-19)
(22.4278 -2.73501 -2.66567e-22)
(21.005 0.837036 -4.56128e-20)
(21.3787 -1.42478 -6.45944e-20)
(22.1273 0.746716 -3.92374e-19)
(20.9013 -1.73323 0)
(15.9897 -2.0594 0)
(21.1879 -0.805902 -1.15781e-19)
(24.1555 -0.33072 8.21471e-21)
(21.3042 -0.480472 0)
(21.7519 0.239917 -1.15169e-19)
(19.8938 0.0400448 -5.63345e-20)
(15.1392 -0.256231 -2.87432e-20)
(25.4218 -2.28561 -2.03598e-19)
(25.1993 0.0367931 0)
(22.5693 -1.22885 1.11012e-19)
(14.98 -0.205454 2.62488e-20)
(8.35568 -1.68442 8.08689e-20)
(18.8388 -0.501624 7.84501e-21)
(14.6005 -0.388555 8.43115e-20)
(22.0096 0.141089 2.27937e-19)
(18.6459 -0.425221 0)
(24.1837 -0.309808 0)
(21.9751 0.279399 -3.31785e-19)
(25.2666 0.472968 3.77538e-22)
(25.2619 0.0319713 -3.79441e-20)
(21.3475 -0.574504 0)
(13.3832 -0.350715 2.06194e-20)
(15.248 0.972826 1.76471e-20)
(22.9967 -0.430785 -3.49838e-19)
(21.061 0.844384 -8.4276e-20)
(18.7711 -0.162063 3.29124e-21)
(24.0335 0.363642 -8.27145e-20)
(22.7126 -0.637651 0)
(22.0141 0.141215 -5.85699e-19)
(21.0196 -1.68157 0)
(22.3036 -1.098 -7.2498e-20)
(13.198 -0.612623 0)
(25.2211 0.483002 -3.23944e-22)
(13.2497 -0.33731 0)
(24.8449 -0.844536 -2.60997e-19)
(18.3148 -1.97359 -1.38954e-20)
(21.4491 -1.43881 1.25026e-19)
(21.325 -1.25353 -2.29112e-19)
(21.9758 0.261208 7.84434e-20)
(19.6137 -0.901923 -1.04267e-19)
(15.4468 0.954236 7.48754e-20)
(14.6195 -0.313124 -1.85743e-20)
(22.9819 -0.393996 8.4869e-20)
(13.6392 -0.685476 0)
(16.1442 0.877057 0)
(22.6577 -0.652544 0)
(15.634 0.915697 -2.15142e-20)
(22.3595 -1.0569 1.45355e-19)
(15.8595 0.0162426 -2.92384e-21)
(22.1969 0.758933 -3.6656e-19)
(22.5049 -0.484876 1.3642e-19)
(16.4622 -0.945843 1.02984e-19)
(22.8488 -0.0688428 -2.18767e-19)
(21.6189 0.561562 0)
(17.9025 -0.480353 4.27411e-20)
(21.2933 -0.780193 -3.69424e-19)
(24.8457 -0.792555 8.50697e-20)
(21.7079 -0.448707 -2.07554e-20)
(21.7454 0.254553 1.36033e-20)
(16.2766 -0.897256 -7.99422e-20)
(18.0005 0.125569 -2.33151e-19)
(21.7009 -0.302203 7.76104e-20)
(17.8868 0.155552 1.56993e-19)
(24.8236 -1.35783 1.90958e-19)
(22.3706 -0.981863 0)
(16.6312 -0.469575 0)
(21.3219 0.934018 1.27797e-18)
(22.8552 -0.488971 3.45172e-19)
(16.707 0.437361 3.89548e-19)
(21.3341 -1.33 0)
(22.4704 -0.463657 -3.4924e-23)
(17.2817 -1.7432 -2.27749e-20)
(25.4561 -2.16078 2.06294e-19)
(24.0446 0.320579 -4.43895e-20)
(16.3167 -1.22645 -1.14829e-20)
(13.4617 -0.636536 0)
(12.6136 -0.457743 4.14308e-21)
(18.7578 -0.113927 -4.35913e-21)
(20.2638 0.94423 -1.8077e-21)
(13.5707 -0.742925 2.49599e-20)
(19.0821 -0.139969 0)
(22.3987 -1.03141 1.22946e-19)
(25.8412 -2.17246 0)
(16.9438 0.535578 5.87146e-20)
(15.8454 -0.000450501 0)
(22.6299 -1.28175 1.09904e-19)
(20.8136 0.190476 2.58543e-21)
(14.7644 1.01906 -6.68669e-20)
(21.5725 -0.702331 -1.43489e-19)
(22.0214 0.191561 5.1079e-19)
(21.833 0.174719 -1.84825e-19)
(17.7532 0.407387 -3.35614e-20)
(24.2586 0.267325 -6.2387e-19)
(22.9264 0.87172 8.95001e-20)
(21.1106 0.165885 8.91436e-20)
(25.2992 5.76441 0)
(22.5181 0.0241251 -2.02327e-19)
(21.5443 0.277964 0)
(24.1194 0.254583 1.11299e-18)
(16.4781 -0.839359 6.86894e-20)
(20.9434 0.748041 -1.32356e-19)
(21.8815 0.128918 0)
(17.4205 -0.279736 -2.71632e-21)
(23.4087 0.599126 0)
(21.9706 0.0908274 -4.69345e-19)
(21.9231 0.170256 -3.4346e-19)
(22.851 0.80244 0)
(16.8958 0.0132689 0)
(23.2892 1.15355 3.11775e-20)
(22.4435 -0.24702 0)
(11.5311 -1.14443 -7.61764e-20)
(20.0407 -0.51047 5.12823e-20)
(26.287 0.0651568 -1.27623e-19)
(22.397 -0.434028 0)
(21.5799 0.378868 0)
(18.0292 -0.469788 -3.46625e-20)
(29.0807 0.272825 -2.10692e-19)
(21.9705 0.109867 0)
(24.856 0.568183 9.91073e-20)
(17.9127 -1.62497 -1.35619e-19)
(23.5788 -0.802797 0)
(21.0336 -0.300023 1.44565e-19)
(23.3096 -0.0829966 4.53831e-19)
(20.1322 -0.181068 2.44613e-19)
(13.2668 -0.202165 -5.51274e-21)
(20.9858 0.698123 1.90429e-19)
(21.9416 0.0910288 -3.89414e-19)
(7.80563 -0.454998 -6.69003e-20)
(23.5184 0.699594 3.85163e-20)
(23.2439 -1.40244 1.58203e-19)
(22.7528 0.991819 0)
(24.9621 0.346934 1.25201e-19)
(24.4291 2.03092 -7.06595e-20)
(22.5869 -0.136553 -3.59866e-19)
(19.7939 -0.868401 -1.52842e-20)
(17.8291 0.228075 2.60898e-20)
(24.807 0.580737 -1.07475e-19)
(22.8879 2.92096 9.96269e-20)
(21.8481 -0.781983 -7.82006e-20)
(17.3697 0.608778 4.83445e-20)
(21.2491 -0.61427 -4.63499e-20)
(21.5667 0.252412 6.1874e-20)
(22.3083 0.435059 0)
(20.0412 -0.885677 -2.65216e-19)
(22.0539 -0.035424 0)
(21.5339 -1.3865 -1.11994e-19)
(15.2992 0.962369 -5.12395e-20)
(21.908 0.191953 -8.18402e-20)
(22.1091 -0.972669 -3.40393e-19)
(11.0227 -2.1292 0)
(21.9566 -0.011204 0)
(25.9983 -0.367317 -5.02437e-20)
(22.6608 0.0830736 -6.48636e-21)
(24.4087 0.650604 0)
(22.9362 -0.0439818 -1.18384e-18)
(21.9013 -0.767393 0)
(23.0708 -0.0494442 8.45455e-20)
(16.3396 0.803602 4.05567e-20)
(22.0623 0.0622345 -1.0645e-18)
(18.4191 -2.06219 3.35491e-21)
(21.0582 1.89079 -4.72293e-20)
(21.5927 -0.770157 1.35457e-19)
(22.0002 0.014802 0)
(20.3638 -0.938109 -8.06318e-20)
(17.7756 -0.82265 -9.88529e-20)
(11.4657 1.24556 -1.21687e-20)
(14.8555 -2.11658 0)
(14.09 -0.155255 -1.62801e-20)
(22.005 0.0431008 -6.55837e-21)
(17.1101 0.571302 0)
(21.5534 0.577116 1.25915e-19)
(25.1755 -0.798474 9.60596e-20)
(22.6823 2.99331 0)
(21.8426 0.357525 9.18816e-20)
(22.3053 -3.9096 1.59292e-19)
(20.7244 -1.85981 0)
(20.3731 0.86394 6.56951e-20)
(11.601 0.973581 -1.46983e-19)
(12.7518 -0.484653 2.52649e-21)
(22.4861 -0.118883 1.70156e-19)
(11.5475 -1.96869 8.04096e-20)
(21.914 -0.599943 -7.24329e-20)
(6.21819 -0.724315 -1.25425e-19)
(22.4826 0.582057 6.52672e-19)
(12.633 -0.419592 1.53253e-20)
(21.7589 0.265909 -1.0855e-19)
(12.5372 -0.516343 -3.58423e-20)
(23.768 -0.0935837 0)
(15.392 0.940655 5.85621e-20)
(20.8332 0.758213 0)
(15.1902 -2.12319 0)
(17.4752 0.610502 3.14495e-20)
(18.5023 -0.375274 1.50996e-20)
(21.9564 0.0360458 2.05841e-19)
(22.0756 1.37643 -3.43807e-20)
(22.2676 0.456727 -4.32537e-19)
(22.8089 -0.416083 2.7749e-19)
(17.9883 0.675042 0)
(21.7478 -0.141017 -1.18371e-19)
(23.8732 0.579125 1.03505e-19)
(23.3384 -0.842262 0)
(22.7062 -2.41951 9.97648e-21)
(23.981 -1.16191 -9.02982e-20)
(21.9177 0.0522383 0)
(21.9145 0.0917821 0)
(21.0384 0.617041 4.6849e-20)
(22.5336 1.00381 0)
(21.8088 0.0680078 1.03648e-19)
(22.5635 2.92187 -1.06892e-19)
(16.6935 0.350777 -2.43602e-20)
(6.05524 -0.861116 1.03082e-19)
(14.2914 -2.18891 1.27753e-19)
(23.034 -2.71797 0)
(22.7846 -0.936547 -1.38528e-19)
(23.6491 -0.741964 0)
(22.5467 0.0323899 -5.80197e-19)
(21.7167 -0.0699912 2.39208e-19)
(22.8552 0.0962476 4.77345e-19)
(21.6892 0.606541 -2.47502e-19)
(16.0239 0.803917 -4.41675e-20)
(16.5287 0.0241608 0)
(21.977 0.0755864 3.22386e-19)
(21.8996 0.0104652 -1.29203e-19)
(22.1734 0.232415 2.41929e-19)
(22.5448 -0.260032 3.84665e-19)
(23.9354 -1.88918 -7.69471e-20)
(24.8318 -1.28764 6.77058e-20)
(19.363 -1.28329 -9.79959e-20)
(22.3533 -0.131644 0)
(15.4973 0.935215 -7.75185e-20)
(22.5791 0.0636544 7.13702e-19)
(27.0434 -2.00944 -1.57793e-19)
(13.4146 -0.149318 0)
(22.1763 0.315591 -4.49383e-19)
(22.0024 -0.683451 0)
(13.1379 -0.295032 -4.2345e-20)
(20.6504 1.09491 0)
(16.5081 -0.0471587 0)
(22.0562 0.292489 -3.35546e-19)
(24.6877 0.184636 1.65775e-19)
(22.0551 -0.0709883 -5.61411e-21)
(21.0901 9.76066 -1.03245e-19)
(17.3956 0.632942 1.67692e-20)
(21.844 0.17774 9.19458e-20)
(21.9569 0.0308257 0)
(22.2817 0.0189193 2.31444e-19)
(13.0256 -0.241377 -5.78334e-20)
(19.9358 -0.384262 1.05733e-19)
(21.0447 2.03076 0)
(22.6619 -0.486182 3.53528e-19)
(21.8877 0.138128 1.80042e-19)
(21.9954 0.0360324 -2.83092e-19)
(21.9962 0.0382621 3.16986e-19)
(18.664 0.222127 2.90509e-21)
(24.6472 0.22358 -3.54243e-19)
(22.4772 0.0370261 -1.01793e-19)
(16.816 -0.331401 5.93572e-22)
(22.746 -1.37339 7.60675e-19)
(23.3906 -0.0586589 -3.46894e-19)
(13.5336 -0.0984922 0)
(12.3805 -0.684444 2.32687e-20)
(17.1136 0.292271 0)
(23.6666 0.83476 2.74341e-19)
(21.9381 -0.101497 -4.62789e-19)
(20.4263 -0.451207 1.72116e-20)
(15.2373 -3.09765 0)
(21.9451 0.121842 0)
(20.4003 -2.66488 2.08754e-19)
(15.5506 -0.0636255 5.61647e-20)
(18.0603 -1.5144 -1.57929e-19)
(21.7366 -0.146295 0)
(15.7023 6.04751 7.73036e-19)
(21.5609 0.615764 0)
(23.1104 0.889906 3.41185e-19)
(21.8486 0.33506 -2.73225e-20)
(21.104 -1.91648 1.04743e-19)
(23.1849 0.828924 -3.57735e-19)
(23.7353 0.809975 -5.39055e-20)
(22.9247 -0.255742 8.12989e-20)
(20.2945 -4.98508 -1.11015e-20)
(22.4166 0.190094 2.66405e-19)
(15.0419 -1.35456 5.2864e-20)
(22.9281 -0.158741 6.81297e-21)
(21.9601 0.0792008 -3.01772e-19)
(20.6721 -0.0219398 -1.39678e-20)
(17.6121 -0.206801 1.2512e-20)
(15.0357 0.982234 1.24557e-19)
(22.4932 -0.26698 5.1232e-19)
(17.9542 -0.547937 3.77363e-20)
(24.8085 0.195495 0)
(19.3301 0.158523 -1.11235e-20)
(16.9691 -0.249302 3.99558e-21)
(22.192 0.384508 0)
(14.8982 -1.28812 -6.38131e-20)
(19.5653 0.00861426 -1.14333e-19)
(18.6292 0.59776 -3.27769e-19)
(22.1527 0.410143 1.80237e-19)
(23.6078 4.16941 1.17773e-19)
(20.2352 -0.0745744 -2.16114e-19)
(21.9136 0.0850238 3.77213e-19)
(21.1285 -0.802141 0)
(25.0197 0.322905 6.35563e-21)
(22.6685 -0.0128341 0)
(24.7785 -0.831238 1.53204e-20)
(23.4817 0.485603 3.82543e-19)
(22.0146 0.105839 6.47373e-19)
(15.0977 0.613023 0)
(22.622 0.739442 0)
(22.047 0.0924945 0)
(22.16 0.629746 3.967e-19)
(15.2938 -0.504316 1.6384e-20)
(21.99 0.0256857 -9.72262e-19)
(14.5535 1.0401 8.56246e-20)
(14.6351 -0.543604 1.06274e-21)
(19.3507 -1.40463 9.90207e-20)
(5.35305 -1.32219 0)
(23.0093 0.0572097 0)
(24.6722 3.84255 0)
(25.1038 -0.783973 0)
(17.8939 0.542904 -1.22684e-19)
(22.024 0.0177527 3.38595e-19)
(24.7991 -0.239712 -3.28621e-20)
(22.0187 0.118704 -5.95046e-19)
(13.0054 -0.791499 0)
(4.10975 -0.938584 2.12987e-20)
(25.0347 -0.30224 0)
(24.6193 -0.229467 -1.61533e-19)
(23.1834 1.09229 2.00517e-21)
(24.6319 -0.212937 -5.01041e-21)
(23.0746 -0.0435732 0)
(23.0231 -4.10007 1.40224e-19)
(22.1525 0.994335 2.74372e-20)
(20.3316 -0.248978 -1.31103e-21)
(22.4396 0.533478 9.48889e-20)
(20.7919 0.636819 0)
(21.9253 0.0467029 4.85752e-20)
(22.8093 1.06694 0)
(12.9446 -0.487886 -1.4173e-20)
(17.3181 -0.0408021 -6.88314e-21)
(26.0197 -2.67182 2.25989e-19)
(22.8098 -0.1161 1.51264e-21)
(16.8396 0.548327 -6.18138e-20)
(22.4648 0.180078 5.67737e-19)
(18.8045 0.225028 -1.13724e-19)
(18.2723 0.0396714 5.12282e-20)
(25.137 0.219558 2.56132e-19)
(25.3466 -0.213524 0)
(21.8433 -0.377942 0)
(24.7792 1.96949 2.85021e-21)
(24.2133 0.127522 -1.99183e-20)
(24.5851 -0.293857 1.05744e-18)
(19.5643 -0.849267 2.6071e-20)
(21.961 0.0736644 -4.2446e-20)
(13.0064 -0.259726 7.47488e-20)
(22.0066 0.0576925 4.2105e-19)
(22.5242 -0.67804 8.52254e-20)
(13.7095 -2.16864 0)
(21.9971 0.0386364 2.92288e-19)
(22.5259 -0.535001 3.16759e-19)
(20.6458 0.174499 -5.19704e-21)
(16.347 0.731999 2.28633e-19)
(26.4662 0.412677 8.58354e-20)
(22.3777 -0.713832 -3.73807e-20)
(22.0493 0.274506 1.66543e-19)
(21.9568 -0.629997 0)
(22.2209 -0.575466 -2.54444e-19)
(25.296 5.51282 0)
(22.0007 -0.207956 0)
(20.571 -0.318096 1.76456e-20)
(21.6663 -2.67623 0)
(23.9062 -0.869909 -1.38073e-19)
(22.7137 -0.087371 -5.01849e-19)
(19.6588 0.160354 7.66069e-21)
(22.2906 0.0531414 -2.39705e-19)
(21.3316 -0.937989 1.07469e-19)
(21.9613 0.017559 7.49462e-19)
(21.9648 0.0991007 2.2186e-22)
(21.5701 0.086549 -7.49392e-20)
(22.5713 0.252782 9.78909e-20)
(22.2888 0.166805 2.81632e-19)
(14.6378 -2.19808 -1.06838e-19)
(25.6077 -2.11893 0)
(20.4002 0.936357 0)
(24.2069 0.537939 -2.66022e-19)
(22.0238 0.0796614 4.15917e-19)
(17.8703 -0.0877629 4.27976e-20)
(18.0539 -0.0955869 -1.77342e-20)
(23.3181 -1.42135 0)
(22.4456 0.466792 -2.10083e-19)
(22.0694 -0.049937 3.84052e-20)
(29.2174 4.29708 5.54582e-19)
(21.5565 0.100935 -1.47233e-19)
(19.6261 -1.9126 1.96181e-19)
(18.7373 -1.50348 0)
(21.9176 0.184563 3.18402e-19)
(22.074 -2.03119 -6.14919e-20)
(24.7438 0.796816 -6.31919e-20)
(10.9249 -2.54954 -2.271e-19)
(25.1359 -0.232446 0)
(23.4823 0.154096 -1.11227e-21)
(25.0601 -0.155708 0)
(26.9848 0.531983 -4.51812e-19)
(21.5633 0.407418 -6.77964e-20)
(15.3553 0.534301 0)
(20.3648 -2.89348 0)
(21.9917 0.0260291 2.49176e-19)
(22.3161 -0.209545 -2.19163e-19)
(28.9907 -0.0600048 2.09615e-19)
(21.3133 -0.333911 1.81173e-19)
(21.0513 -0.669877 7.14919e-20)
(22.0148 0.0855789 3.83706e-19)
(25.2656 4.20657 -9.41597e-20)
(12.8969 -0.278834 -3.07669e-21)
(18.9941 -1.20262 0)
(19.7406 -3.42285 0)
(21.9329 0.019909 0)
(20.6184 -3.01576 0)
(22.5748 -0.156531 0)
(16.4472 3.78763 -2.23174e-20)
(22.5352 0.00556801 -1.53394e-20)
(22.9963 0.228915 2.11854e-19)
(23.8024 -0.00458915 0)
(20.1634 1.2553 1.65468e-20)
(22.6656 -0.0382682 -3.10441e-19)
(21.5752 -0.0737456 -3.57089e-19)
(17.1822 0.696971 1.0014e-20)
(23.9281 0.586186 -1.53246e-19)
(21.81 0.0583875 -1.04152e-19)
(21.386 -0.503714 3.34503e-19)
(21.883 -0.21609 2.47018e-21)
(22.3073 1.59965 5.24261e-20)
(24.2768 1.94534 4.64653e-20)
(24.4726 -0.972204 6.88784e-21)
(20.7638 -2.22359 1.97804e-19)
(13.2915 -0.277448 -8.75943e-21)
(22.9517 0.217827 -3.68584e-19)
(23.9587 0.0961501 0)
(22.2898 1.6837 0)
(22.0519 0.030059 -7.10767e-19)
(21.7091 0.769252 -5.99582e-20)
(22.0327 0.0327856 -3.07343e-19)
(16.3367 -1.26118 -2.16693e-20)
(26.5589 -1.29121 -2.3984e-19)
(13.9814 -0.149292 -6.02547e-21)
(14.1937 0.056992 -5.6487e-21)
(22.0378 0.0779082 -1.01273e-19)
(23.3787 4.06461 0)
(23.3214 0.988819 -8.16697e-20)
(14.7002 0.129047 1.30099e-20)
(21.122 -0.699424 8.15763e-20)
(23.9051 -0.139895 0)
(21.8696 -0.181442 2.9422e-19)
(22.508 -0.121614 -1.19594e-18)
(22.3083 -0.00741864 -9.16205e-23)
(22.3585 0.139275 2.94653e-19)
(22.9931 0.220104 -3.26511e-19)
(19.2578 -0.143774 1.40115e-21)
(7.76259 -1.2255 6.79199e-20)
(20.7018 0.0479323 -5.17663e-20)
(15.9389 -2.12907 -1.25533e-19)
(22.0673 0.343332 1.76248e-19)
(12.2778 -0.537941 1.26239e-20)
(25.3013 -0.906572 0)
(20.0855 0.153822 -1.26881e-19)
(22.4591 0.0540888 -5.63257e-20)
(24.1938 0.808764 0)
(21.7445 -0.439411 1.77441e-19)
(22.0088 0.0953018 0)
(24.6136 0.902366 1.59817e-20)
(20.0943 -0.422584 -2.0909e-19)
(21.9985 0.0574161 -6.26186e-19)
(21.0784 -0.371038 -4.34002e-20)
(24.0701 0.0668175 0)
(24.5689 0.120173 1.79348e-20)
(23.9264 1.02389 0)
(19.908 -2.59603 0)
(13.3977 -0.257189 -9.56129e-21)
(23.6089 -0.173515 3.76432e-19)
(9.95012 0.8805 0)
(10.5666 -1.90188 -2.11099e-20)
(24.8105 0.761936 6.28324e-20)
(21.9763 -0.0196131 0)
(11.9251 -2.00672 0)
(20.0533 0.702058 -4.43718e-19)
(26.0333 0.502508 -2.66951e-19)
(17.1537 -0.778723 -1.15324e-20)
(20.2328 1.10613 0)
(19.6148 -0.0871996 1.47299e-19)
(22.137 -0.331934 -3.04335e-19)
(19.9832 0.0284395 -9.7294e-20)
(22.6713 -0.0606787 -3.05729e-19)
(20.746 -1.4954 9.646e-20)
(15.1879 0.84174 0)
(20.8365 0.807512 2.85599e-20)
(20.8647 -1.07454 8.43786e-20)
(22.5307 -0.250789 -2.32975e-19)
(22.8541 -0.226654 -6.51553e-19)
(20.105 -0.414161 0)
(24.0419 -1.41733 -3.02869e-20)
(22.0514 0.322929 0)
(20.9119 -0.0346682 3.88514e-19)
(24.9618 -0.0648583 3.49993e-21)
(25.4651 0.328584 1.66294e-20)
(23.1766 -1.31928 0)
(26.5666 0.110233 -1.77256e-19)
(22.8281 -0.351372 2.70805e-19)
(21.74 0.185313 1.47843e-20)
(22.5377 -0.731625 -3.08415e-19)
(22.0016 -0.0163461 -1.08089e-19)
(19.3152 -0.0424916 1.23043e-21)
(20.5434 -2.57479 9.99925e-20)
(24.0814 -1.50078 2.3604e-19)
(21.9952 0.0228607 0)
(24.3122 -0.284448 0)
(21.5658 -3.62579 0)
(22.7437 -0.419654 2.97e-19)
(15.8219 0.878805 -6.66297e-20)
(21.0375 -0.227984 2.90039e-19)
(21.6162 -0.438576 0)
(21.2874 0.170004 -6.16223e-19)
(25.1481 0.461065 0)
(12.6943 -0.487006 8.7303e-21)
(21.5829 -0.0416032 -7.40487e-20)
(25.4327 3.91492 1.18045e-19)
(22.6487 -0.022992 3.32075e-19)
(22.8174 -0.475544 -3.1867e-19)
(26.1137 0.0360807 2.83124e-19)
(16.7452 0.224923 0)
(20.2884 0.451828 1.81202e-20)
(21.8887 0.892216 1.2152e-20)
(21.5725 -2.27085 -1.44714e-19)
(6.04552 -0.481905 -1.54891e-20)
(18.3867 -0.581971 -7.06924e-20)
(17.1609 0.289249 4.14133e-20)
(25.4438 0.0300104 -4.52751e-20)
(25.1361 0.282434 8.74592e-23)
(16.4933 0.391441 4.68682e-20)
(19.2371 -0.559175 3.65719e-19)
(21.2464 0.0720537 0)
(21.912 0.0617137 0)
(17.4322 -1.76448 0)
(21.8995 0.153403 -1.73934e-19)
(21.2223 -0.291026 0)
(19.5562 -1.03841 9.10193e-20)
(20.9925 0.519785 7.04443e-19)
(22.8427 -0.884001 0)
(26.8513 0.652481 3.88554e-19)
(24.9989 -0.277604 0)
(20.1787 2.30867 7.91726e-20)
(25.4399 0.334764 -3.26193e-21)
(16.5037 0.736725 7.8182e-20)
(22.0556 0.173228 -8.60406e-19)
(25.2073 -0.267855 0)
(15.8259 -0.042255 4.70086e-21)
(19.4474 -1.10806 -1.13675e-19)
(21.257 -0.543089 2.79467e-19)
(21.0731 0.650402 1.35008e-20)
(23.4893 -0.0894263 -9.97818e-19)
(22.7259 -0.112466 3.43246e-19)
(21.9344 3.50193 0)
(24.0269 -1.25283 1.1556e-19)
(20.2383 2.19283 0)
(22.0002 0.010764 -2.22808e-19)
(12.661 -0.414601 -8.82846e-21)
(22.5541 -0.0614483 -2.22743e-19)
(21.8658 -0.273319 -1.35366e-19)
(24.8854 -0.23427 7.1796e-21)
(17.8463 2.78391 -1.0487e-20)
(26.308 -1.25442 3.65501e-22)
(21.9647 1.12524 -1.21988e-19)
(24.4083 0.668245 -3.41106e-21)
(24.9523 0.105447 0)
(21.8436 -0.343703 0)
(22.0668 0.756821 2.04516e-19)
(20.6755 9.01847 0)
(22.3083 0.264892 1.98837e-19)
(22.0888 0.0552985 3.56692e-19)
(21.9248 0.92263 1.02437e-19)
(25.8534 0.140702 4.15301e-20)
(23.9408 0.241616 0)
(17.1961 -0.632435 3.48597e-21)
(21.9625 0.0159816 -2.31563e-19)
(17.1065 0.133458 2.05962e-20)
(22.7738 -0.0424406 -1.1383e-19)
(21.4812 0.495849 0)
(24.4953 0.322708 2.19079e-19)
(21.8697 0.437678 0)
(24.389 1.20346 2.7518e-21)
(25.0823 -0.799728 -2.93392e-19)
(22.8871 -0.112334 1.13137e-22)
(22.1452 -0.0763338 1.24908e-19)
(20.1955 0.601785 -1.66784e-20)
(13.7418 0.906481 0)
(13.1566 -0.297864 -5.0655e-20)
(27.6701 2.60242 -1.03553e-18)
(19.5072 -1.04515 1.12552e-19)
(25.0018 0.236811 -1.20154e-20)
(22.2476 1.33967 0)
(21.5834 0.963657 -8.22575e-19)
(21.9683 0.0744435 -2.22599e-20)
(22.9511 -0.163069 0)
(21.9503 0.0317346 -1.94396e-19)
(22.6584 0.828253 -2.47636e-21)
(17.8277 0.447461 -5.69886e-20)
(20.4798 -0.289008 -7.77712e-21)
(21.7314 -0.264478 -9.525e-21)
(22.574 -0.115423 3.66296e-19)
(21.328 0.577946 -2.5181e-19)
(14.2442 -0.422746 -1.32342e-20)
(23.6975 -0.966822 5.36405e-19)
(20.9787 -1.91406 -2.36285e-20)
(12.5212 -0.486473 9.68468e-22)
(22.5602 0.181847 -6.91361e-19)
(13.4737 -2.14596 0)
(21.5929 0.192158 -9.55426e-22)
(21.9633 0.823226 -2.76006e-19)
(21.9412 -0.263856 -2.62213e-19)
(14.3796 -0.0467847 -1.73372e-20)
(24.6438 1.88951 -5.03969e-21)
(25.18 -0.999383 7.61799e-20)
(25.811 0.185397 5.11864e-21)
(7.75717 -0.260042 -6.77501e-20)
(17.306 -0.462021 -1.90777e-20)
(23.6108 0.00234412 7.6698e-20)
(17.0003 -0.297902 1.58098e-22)
(22.128 -0.609243 -2.98437e-19)
(15.1065 0.120379 0)
(21.9758 -3.92914 -1.81953e-19)
(22 0.00910714 0)
(22.1489 0.665358 -4.374e-19)
(13.0894 -0.313366 1.4922e-20)
(25.4597 0.0135499 0)
(10.7454 -1.91572 -1.26632e-20)
(23.9674 -0.0668017 -2.20131e-19)
(25.4876 0.294516 0)
(16.1666 0.842825 0)
(21.9697 -0.0149636 6.40865e-20)
(22.1741 -0.115124 -6.22887e-20)
(23.1658 -0.0353473 -1.6218e-19)
(24.6678 0.640455 -8.42689e-21)
(21.968 0.079251 3.64344e-19)
(25.1087 -0.27385 0)
(21.37 0.550581 -5.32417e-20)
(20.1487 0.703174 9.51e-20)
(22.605 -0.982915 0)
(21.9767 0.921819 -4.04479e-19)
(14.3368 -1.81333 -1.35684e-19)
(14.9225 -0.15952 0)
(10.4357 -2.39093 2.26628e-19)
(23.8645 -1.09758 -1.43835e-19)
(17.1513 0.312789 0)
(20.7323 -1.728 0)
(22.0086 -0.077968 0)
(20.5235 0.151307 -1.2881e-19)
(5.90267 -0.706152 -1.04523e-19)
(21.8231 0.145394 0)
(24.5977 0.65386 2.31741e-20)
(22.5071 0.436641 1.17736e-19)
(24.4379 0.503965 -9.01178e-20)
(21.9973 0.0495139 2.78543e-19)
(12.8077 -0.37913 -2.06183e-22)
(16.0116 -0.0575593 0)
(21.991 -0.391048 0)
(20.365 -0.945473 0)
(24.5456 -2.96867 0)
(21.963 0.776815 4.79303e-19)
(13.2936 -0.154495 -6.12079e-21)
(29.3354 -0.186493 4.3757e-19)
(23.4718 0.593453 0)
(23.3554 0.0498655 0)
(22.4638 -0.218295 0)
(15.0303 0.789553 3.62632e-20)
(13.2878 -0.202091 -8.29772e-21)
(20.5904 -2.71906 -2.57452e-19)
(17.2044 0.579455 -5.7886e-22)
(21.9605 -0.0962653 3.24183e-19)
(21.7093 0.711459 3.21115e-19)
(7.62275 0.722331 2.38183e-19)
(21.4842 0.16943 0)
(17.872 -0.0902719 0)
(22.3476 -0.777173 -2.60118e-19)
(9.50684 -2.06094 -7.15534e-19)
(5.60755 -1.0617 -1.1525e-19)
(24.5327 -1.44084 1.5001e-20)
(5.28168 4.03327 1.39736e-19)
(19.6544 0.0252928 2.24872e-19)
(15.9558 -0.0676778 0)
(25.9868 0.845365 -8.71235e-20)
(23.3504 -0.70429 1.46645e-19)
(22.0079 0.161779 0)
(21.6113 0.214474 -6.59014e-20)
(12.5077 -2.09026 -6.84868e-20)
(21.1215 -1.09372 -1.4222e-21)
(23.5885 0.0709094 -2.614e-19)
(10.9561 0.989117 0)
(20.4066 1.36205 0)
(21.143 -0.0549965 5.73002e-21)
(20.5359 -0.0344596 0)
(22.5562 0.699681 0)
(14.7578 -0.551989 0)
(24.4399 -0.482487 7.21143e-20)
(24.0302 0.692065 0)
(22.0055 0.033874 3.24516e-19)
(19.9405 0.351439 0)
(23.3864 -0.758959 0)
(22.5437 0.763897 0)
(22.3951 -0.118143 1.2112e-19)
(20.8276 -1.4668 -1.8238e-19)
(22.0101 -0.0991814 0)
(23.3709 1.09782 -9.40373e-21)
(22.2677 1.22082 0)
(18.7365 6.97686 0)
(24.8527 0.0898959 -3.34026e-20)
(15.1711 0.0198055 -9.27016e-19)
(21.9499 0.0288869 5.19199e-19)
(14.4904 -0.358599 2.13558e-20)
(20.5755 -0.319611 -1.05278e-20)
(22.0341 -0.103019 1.52539e-19)
(20.5381 -1.47979 -3.4301e-19)
(26.6705 -1.92351 -1.7097e-19)
(15.9055 -0.0979487 0)
(22.1631 0.382845 0)
(28.7877 4.66152 -1.13897e-18)
(17.4663 -0.750943 1.02734e-19)
(22.925 0.0329901 1.074e-19)
(18.1506 -0.395987 0)
(22.2023 -0.610259 -3.08027e-19)
(24.0631 0.138936 -4.24969e-19)
(21.3703 2.57973 0)
(21.7341 -0.292424 -2.80191e-19)
(15.4311 -0.0167561 2.38516e-20)
(16.3384 0.782681 -4.23262e-20)
(22.5531 -0.626917 -1.45663e-19)
(23.2692 1.34238 -7.06622e-20)
(16.7428 -1.03654 8.32822e-21)
(26.1699 -1.06299 0)
(25.7042 0.75828 1.36723e-19)
(21.9434 0.0707467 -2.9831e-19)
(21.9094 0.0082912 0)
(24.4929 0.445325 3.90816e-20)
(22.4357 -2.15293 -2.28268e-19)
(13.5598 -2.10039 7.71908e-20)
(21.4934 0.440858 0)
(22.7825 6.39933 -7.75451e-20)
(22.689 0.0298659 0)
(23.4121 -0.107074 -1.70534e-18)
(23.5888 -0.0812575 0)
(18.0989 0.440931 -6.36608e-20)
(20.1303 -0.448981 -1.65348e-19)
(23.5154 -0.642103 -1.8972e-19)
(19.2739 1.17342 -1.94811e-19)
(24.4085 -1.3842 -4.99276e-20)
(20.4581 0.0684373 -2.46976e-21)
(20.3157 -0.826224 2.10178e-20)
(23.9321 -0.818907 -6.77389e-20)
(22.4341 -1.23985 -1.16858e-19)
(24.5091 -0.154304 3.84942e-19)
(16.1001 0.820108 -1.25221e-19)
(21.2331 -0.333709 0)
(21.5143 0.766345 -4.16044e-20)
(22.0363 0.117883 2.1067e-21)
(14.4689 0.0864234 -5.60476e-21)
(22.7454 0.885365 0)
(22.2618 0.0514282 1.0147e-18)
(15.6824 0.00219856 0)
(20.9401 -0.107806 -1.65851e-19)
(25.1286 0.420769 -6.93603e-20)
(23.5852 -0.167719 5.94956e-21)
(22.0512 -0.110046 1.33547e-19)
(21.7759 -2.61109 0)
(15.7628 -2.78738 -2.30321e-19)
(21.9613 0.0573882 7.86616e-20)
(22.0889 -0.649272 0)
(21.9964 0.0462207 -5.73716e-19)
(21.7136 -0.0157878 0)
(18.9366 -2.17491 -3.55897e-19)
(22.2706 -2.06094 -6.08715e-20)
(25.5515 0.0160982 5.44274e-20)
(16.2644 3.33493 2.70282e-19)
(25.2283 -0.661191 -1.1211e-19)
(21.8648 0.639854 0)
(20.6924 -0.304774 -3.6455e-21)
(22.6839 -0.0410375 0)
(22.4946 -0.202822 3.06792e-22)
(24.1561 1.05177 0)
(19.4767 -0.0845133 -1.17982e-21)
(21.9673 0.0611842 -1.64575e-19)
(20.5298 -2.877 2.32628e-19)
(21.5711 0.0803748 -7.14062e-20)
(22.5753 0.0149141 1.17604e-19)
(24.9561 0.558951 5.08874e-20)
(18.9425 -1.31218 -1.03159e-19)
(22.4908 -0.0821141 -4.9794e-21)
(23.8974 -0.649179 -3.29978e-20)
(20.1789 -1.06282 -2.03494e-20)
(15.6043 -0.470894 -9.73087e-21)
(23.3018 0.109074 -1.16262e-18)
(25.224 -1.68451 0)
(22.1501 -1.07862 -8.02057e-20)
(20.368 -0.848279 -2.00315e-20)
(3.83253 -0.968854 -1.87691e-22)
(23.6209 -0.68438 0)
(15.3055 0.134771 1.26274e-18)
(24.9269 -0.116877 -3.19458e-21)
(19.8757 -5.52657 -3.57673e-19)
(12.9335 -0.303329 2.72756e-21)
(25.3106 0.43568 0)
(23.5563 0.427606 0)
(4.12197 -0.774036 3.21237e-20)
(24.0976 -1.82081 6.1345e-20)
(21.8223 0.155453 -1.05651e-19)
(22.1083 -0.702951 0)
(17.001 0.732469 -7.83782e-20)
(22.0071 0.0820801 0)
(22.0334 -2.50891 3.45111e-19)
(13.385 -0.13607 -1.23068e-20)
(22.4184 0.698474 -4.11884e-21)
(24.3729 -0.507044 0)
(21.4848 -0.184394 -1.08032e-20)
(19.8511 -0.0359502 0)
(22.8682 -0.0650449 -2.10999e-19)
(17.8755 -0.948556 1.70873e-20)
(22.8162 -0.724464 -1.37306e-19)
(22.37 0.0645782 0)
(22.1364 -0.369584 1.51429e-19)
(22.4818 -1.80214 0)
(22.0732 -1.93629 0)
(4.93369 -1.3232 -3.8362e-19)
(12.088 -0.285537 1.23547e-19)
(17.6761 -1.20596 5.78742e-20)
(13.3378 -0.265519 0)
(21.183 -1.15146 0)
(21.1612 -2.10607 -7.42458e-20)
(7.74025 -1.03748 0)
(11.8342 -1.20765 1.02261e-19)
(22.9969 -0.0276128 -4.8246e-22)
(24.5623 0.405278 -4.08635e-21)
(16.6669 0.323205 -2.33146e-21)
(15.1694 0.172484 -1.6346e-20)
(21.0469 -0.0633219 0)
(21.7437 0.782541 -6.13477e-20)
(22.099 0.768237 -2.01369e-19)
(20.9206 0.104049 3.71184e-19)
(22.1184 -0.179647 0)
(14.489 -3.36862 0)
(20.4013 -0.014103 4.09435e-21)
(12.5368 -0.665783 0)
(26.0143 5.07134 0)
(5.0362 -1.36166 -3.87399e-21)
(24.7892 0.152308 0)
(21.3063 -0.507297 -9.78564e-20)
(23.8024 -2.03567 0)
(15.4851 0.761938 0)
(21.9573 -0.33051 2.89512e-19)
(15.1902 -0.516311 2.58709e-21)
(21.6532 -0.245005 0)
(12.1485 8.70872 -6.91978e-19)
(26.477 -0.0662286 9.18915e-21)
(19.0512 -0.599758 -7.59858e-20)
(22.8364 0.682825 1.50455e-21)
(26.205 -2.60614 -2.5542e-19)
(21.9708 -0.283266 2.67849e-19)
(21.8987 0.0655395 0)
(24.8302 -0.767683 7.67521e-21)
(22.0021 -0.022737 1.15899e-19)
(23.513 -3.54044 1.50299e-19)
(27.538 4.00479 -7.22556e-19)
(20.0265 -0.582831 -4.27216e-20)
(19.3306 -1.07129 -9.77534e-20)
(25.8778 0.167847 -9.95454e-21)
(25.419 1.65458 -6.401e-20)
(22.0173 -0.78802 -8.45634e-20)
(22.2319 1.368 0)
(24.3971 0.0837943 0)
(21.9311 0.240181 -3.35753e-19)
(20.4675 0.496631 1.1384e-19)
(21.7087 -3.2799 0)
(19.1285 0.54728 5.12275e-19)
(23.1839 -0.0909582 -4.14268e-19)
(21.976 0.0716296 -3.52477e-22)
(21.9256 0.918046 0)
(26.9409 4.40334 2.8478e-19)
(24.9714 0.225357 0)
(22.207 0.487773 0)
(21.0275 -2.07185 -7.19641e-20)
(23.1262 -2.65636 -1.04192e-19)
(22.5898 0.0929356 -1.46766e-19)
(18.4974 -0.067234 1.08962e-19)
(23.5538 1.4339 -5.4253e-20)
(13.0817 -2.02044 0)
(21.7889 -1.52153 -1.01794e-19)
(12.9033 -2.08003 2.37972e-21)
(22.3793 -0.999443 1.17185e-19)
(22.8927 -4.00764 0)
(22.0118 0.0329698 1.97563e-19)
(21.5936 1.23707 -2.76899e-19)
(19.5005 0.663625 0)
(20.8828 -1.12762 -3.36349e-19)
(21.9426 0.0837938 0)
(21.1419 -0.194585 1.22452e-22)
(14.2322 -0.719381 -3.23617e-20)
(24.6359 -0.289613 1.84344e-19)
(21.8588 0.102724 0)
(21.8714 0.57374 1.00651e-18)
(12.4923 -2.10058 -4.82707e-20)
(20.3038 -0.345954 -4.40738e-19)
(13.9944 -2.10146 5.69569e-20)
(22.5959 0.955408 0)
(21.8883 0.0745179 4.92871e-20)
(14.2992 -0.625399 -5.32841e-21)
(25.1507 0.419333 -3.27758e-20)
(13.0826 -2.04167 3.11089e-20)
(12.8031 -0.407795 -8.12004e-21)
(20.3828 0.913144 1.27927e-19)
(22.6532 8.69992 0)
(22.7805 0.686713 -3.18014e-19)
(24.6686 0.791775 -7.26161e-20)
(20.1853 -0.852707 0)
(20.741 0.225546 6.55681e-20)
(21.329 0.309998 -7.64469e-20)
(26.3414 5.28061 0)
(23.4211 0.0763395 4.26235e-19)
(13.0629 -0.350738 -4.18097e-21)
(14.3159 -0.111671 -2.44812e-20)
(20.4841 -0.0392864 -7.16959e-20)
(24.0434 -0.953497 -2.33461e-20)
(22.0832 0.684519 2.79872e-19)
(24.4548 0.585369 -5.07197e-20)
(20.3087 -0.56117 -1.91217e-20)
(21.9553 0.09838 4.17006e-20)
(22.3771 -3.39616 3.38688e-19)
(24.4531 3.90314 7.71199e-21)
(13.7382 -1.018 0)
(22.6563 -0.192757 -7.46104e-19)
(21.0405 -0.117579 0)
(22.7174 -0.495654 -3.58836e-20)
(22.6095 0.110777 -8.54873e-20)
(23.7634 0.00196927 6.08332e-21)
(22.6891 -0.176839 7.19446e-19)
(17.239 0.750802 -2.09206e-19)
(11.5355 -2.19569 1.58253e-19)
(21.0648 -0.311679 0)
(21.5333 -0.564792 2.19294e-19)
(18.0499 -0.34826 2.45913e-20)
(14.4125 -2.42079 0)
(21.4572 0.483084 -2.19808e-20)
(16.7268 0.703603 0)
(25.3159 -0.438727 3.06741e-19)
(24.9392 0.0232137 9.4126e-21)
(10.3845 0.867157 0)
(24.8122 -0.219204 -1.22663e-19)
(24.6018 -0.940206 -6.53282e-21)
(17.3718 -0.446392 5.65888e-21)
(22.2857 -0.141497 -1.71874e-21)
(24.5589 0.924522 5.05024e-22)
(23.5061 -0.575489 1.91735e-19)
(17.0552 0.173827 -1.55059e-20)
(22.04 0.170709 -1.94891e-19)
(19.0448 -2.04761 -2.03885e-19)
(18.5938 -0.0228155 0)
(22.1516 -0.256212 1.40415e-19)
(13.1938 -0.776065 -2.02864e-20)
(24.7153 -0.293751 -1.90348e-19)
(17.7852 0.422135 1.14571e-19)
(22.2385 -2.65503 7.83566e-20)
(23.2952 -1.28143 -1.6319e-20)
(21.6966 4.39289 -1.13597e-18)
(13.2053 -0.247689 1.52152e-20)
(24.1538 0.20929 3.97511e-20)
(21.1877 -0.164982 9.36406e-20)
(17.752 0.582782 1.88947e-20)
(20.5025 1.26468 -1.79285e-19)
(22.3345 -2.6998 -7.11958e-20)
(23.2549 -0.20569 3.2826e-20)
(23.1217 0.136314 5.83987e-22)
(25.3338 0.42345 -2.19717e-20)
(24.0348 0.581733 9.71331e-20)
(24.241 0.817103 6.49877e-22)
(22.1335 -0.836222 2.01665e-19)
(21.9139 -0.216559 3.12041e-19)
(21.8651 0.247842 3.73495e-19)
(23.491 0.0240145 1.19902e-20)
(20.0575 1.90861 7.77359e-20)
(22.5208 1.89468 1.04524e-19)
(23.8457 -0.0169175 3.3717e-19)
(21.9045 -3.22186 0)
(20.3679 -0.111046 1.46991e-19)
(17.7846 -0.0817059 0)
(21.9365 0.171884 -8.2882e-20)
(4.639 -1.18921 2.03892e-19)
(12.4328 -0.528317 0)
(22.0257 0.0321714 0)
(23.9264 -0.690156 -1.20433e-19)
(22.505 0.846564 0)
(21.4071 -1.63001 2.54726e-19)