/*--------------------------------*- C++ -*----------------------------------*\
| =========                 |                                                 |
| \\      /  F ield         | OpenFOAM: The Open Source CFD Toolbox           |
|  \\    /   O peration     | Version:  4.0                                   |
|   \\  /    A nd           | Web:      www.OpenFOAM.org                      |
|    \\/     M anipulation  |                                                 |
\*---------------------------------------------------------------------------*/
FoamFile
{
    version     2.0;
    format      ascii;
    class       volScalarField;
    location    "200";
    object      nut;
}
// * * * * * * * * * * * * * * * * * * * * * * * * * * * * * * * * * * * * * //

dimensions      [0 2 -1 0 0 0 0];

internalField   nonuniform List<scalar> 
14558
(
0.0469509
0.110896
0.0445063
0.111825
0.0825953
0.0651769
0.0137565
0.0179581
0.0302053
0.0410146
0.040526
0.0495376
0.105752
0.0171848
0.133387
0.0162603
0.0182417
0.0824941
0.132806
0.0106246
0.130009
0.0625199
0.116904
0.130581
0.0391574
0.11344
0.0994325
0.0166139
0.0452404
0.0604819
0.0339196
0.0570896
0.0836343
0.127188
0.0704219
0.0549959
0.114741
0.0186348
0.0582324
0.0944503
0.10566
0.0592447
0.0838368
0.0630165
0.0668402
0.0598354
0.11497
0.0492906
0.0257701
0.063954
0.0559418
0.0672902
0.0145811
0.0564621
0.0274098
0.0577499
0.130068
0.0138429
0.0607683
0.055151
0.0272904
0.0154863
0.137097
0.0401399
0.076781
0.076047
0.105532
0.0561381
0.0372422
0.0789621
0.0379353
0.113708
0.0771298
0.120859
0.00607747
0.0502501
0.00346121
0.0621843
0.0611954
0.0380045
0.0178922
0.0662695
0.0967499
0.0947486
0.109279
0.127894
0.101771
0.0689205
0.135792
0.0780137
0.0158937
0.0354148
0.130644
0.0841338
0.129938
0.00985068
0.0721803
0.10939
0.110064
0.0932952
0.0119887
0.0960139
0.0856584
0.0215155
0.0306413
0.0966398
0.0101506
0.0565586
0.0824422
0.111938
0.130465
0.0881696
0.126955
0.120163
0.0929137
0.103771
0.12206
0.0500809
0.0365077
0.0555986
0.0334323
0.0399186
0.0982739
0.137042
0.009906
0.11937
0.0955031
0.0399488
0.0418651
0.0280926
0.0259597
0.0646603
0.12356
0.0833833
0.118139
0.0185207
0.00506111
0.093516
0.0972089
0.0561276
0.0563833
0.0639341
0.0494682
0.136751
0.0953548
0.0602565
0.0695176
0.024113
0.0733816
0.0970608
0.0646669
0.0425815
0.0392789
0.0665065
0.0190144
0.118174
0.0245103
0.0112947
0.0707887
0.0158272
0.13337
0.0959099
0.0240405
0.0689256
0.0546703
0.0201388
0.111406
0.0640771
0.0712716
0.0708825
0.134931
0.0457432
0.0531971
0.00116461
0.0287725
0.0804868
0.125476
0.0304201
0.0956643
0.0876526
0.0604856
0.109661
0.0202601
0.0483861
0.0718947
0.00673511
0.109695
0.035714
0.0256363
0.0639494
0.0109858
0.0593872
0.0871394
0.10648
0.0815015
0.00722001
0.0352648
0.0802802
0.0262275
0.0234009
0.131706
0.105933
0.00862166
0.0691192
0.0528284
0.00856002
0.0822904
0.0883779
0.0721787
0.0311179
0.0377068
0.101198
0.111922
0.121109
0.0702542
0.0983448
0.0617016
0.0422659
0.00933035
0.0236706
0.112693
0.0503367
0.0433138
0.0302247
0.0866391
0.0256827
0.0149972
0.0326439
0.00396001
0.127809
0.0856916
0.0639833
0.0533801
0.0250692
0.110325
0.0533605
0.0538442
0.02448
0.0586767
0.0114682
0.125297
0.0720455
0.0332936
0.0592978
0.101361
0.10218
0.097172
0.0156272
0.00538366
0.0102378
0.0221049
0.111285
0.102981
0.0636701
0.0605624
0.0300719
0.0697246
0.0054366
0.113584
0.134508
0.135478
0.136829
0.0171466
0.0640713
0.121038
0.0176677
0.014422
0.12612
0.0445423
0.0926296
0.0430443
0.0683001
0.0257556
0.00168029
0.122008
0.0054963
0.0697574
0.0418801
0.00757308
0.0172923
0.095193
0.0503848
0.110577
0.0484449
0.0465472
0.04196
0.0465679
0.0183781
0.0407524
0.0699236
0.0501125
0.121586
0.0754241
0.0638506
0.00949083
0.0524087
0.058897
0.0226101
0.120632
0.130178
0.00739318
0.069069
0.0232618
0.00320564
0.0817805
0.045302
0.0671042
0.110141
0.069184
0.0459647
0.028913
0.0406722
0.0299737
0.106642
0.043984
0.0899215
0.0645085
0.0847555
0.126464
0.0693239
0.00882363
0.121141
0.0550629
0.00289135
0.0059737
0.0412685
0.117527
0.0208853
0.109661
0.0338151
0.106891
0.0869681
0.00232195
0.019963
0.0137657
0.123167
0.101976
0.0207368
0.0148889
0.0900108
0.0199789
0.0601396
0.079937
0.100663
0.0994054
0.0951008
0.133162
0.0101043
0.0469822
0.0362737
0.0389732
0.0257146
0.0376235
0.0118397
0.0105159
0.0739935
0.0539775
0.111927
0.0119601
0.0451536
0.120572
0.0620385
0.0678927
0.0599395
0.0231224
0.135749
0.0605345
0.130674
0.0334572
0.0332261
0.0625044
0.099521
0.0658737
0.073077
0.0240897
0.0641307
0.136412
0.0921025
0.0413034
0.0430805
0.125481
0.0621655
0.067447
0.086677
0.125457
0.0652764
0.0436956
0.0468398
0.0225986
0.0175584
0.071899
0.0837021
0.0712671
0.0043744
0.133962
0.0951404
0.0557185
0.00616047
0.00864683
0.0934405
0.0246052
0.039216
0.119532
0.0907071
0.114258
0.00086934
0.00962643
0.129355
0.0441924
0.0246854
0.0977094
0.0446474
0.0921102
0.0683017
0.0716759
0.0102091
0.079382
0.0380455
0.0795097
0.0339146
0.11782
0.0534802
0.0285634
0.0513787
0.0914099
0.0657664
0.0264537
0.122871
0.0239058
0.0085196
0.0663581
0.0566571
0.0405375
0.0192804
0.0888811
0.0968
0.076389
0.0727827
0.075684
0.0575163
0.0397389
0.0758863
0.0769988
0.0265635
0.0102762
0.0751086
0.0993938
0.0942545
0.0576956
0.09802
0.0184913
0.0814627
0.129902
0.0645595
0.0476714
0.103382
0.132396
0.0404518
0.0104174
0.0740135
0.0357921
0.134039
0.0405906
0.0282789
0.136073
0.0141309
0.0764922
0.0283727
0.0945378
0.0888805
0.0362481
0.0654199
0.0631177
0.104748
0.0756835
0.116433
0.12098
0.0287806
0.0828439
0.0765859
0.0103527
0.107296
0.125242
0.0360014
0.0759636
0.0254
0.0082772
0.0207767
0.113329
0.0549523
0.0267292
0.00308638
0.0394646
0.116603
0.0681718
0.0258636
0.0615559
0.0157865
0.056428
0.0615311
0.0399127
0.113707
0.0488865
0.0518428
0.0491119
0.0572327
0.103642
0.0976955
0.0792697
0.0421462
0.0797048
0.131565
0.032577
0.0516423
0.103411
0.0590863
0.0863096
0.128886
0.0381322
0.10748
0.13272
0.0342759
0.00464638
0.0549693
0.0194318
0.026407
0.00746345
0.00483433
0.109963
0.0950689
0.0887694
0.0348974
0.056964
0.0520929
0.0356392
0.090055
0.119142
0.090934
0.0418384
0.0111565
0.0482099
0.00156296
0.0137342
0.101582
0.0427266
0.0561664
0.00747729
0.103733
0.0366307
0.116491
0.0796032
0.0466379
0.00659845
0.0487822
0.027433
0.020654
0.0594848
0.0869372
0.0268955
0.088042
0.0172125
0.127973
0.0501318
0.0747804
0.122326
0.0221393
0.0398456
0.0558712
0.0366296
0.0612581
0.134511
0.0862638
0.030186
0.0738055
0.0405629
0.037448
0.0209543
0.0854198
0.0402087
0.0196711
0.074121
0.0898471
0.0134844
0.0476636
0.0505222
0.0897371
0.0336913
0.0155146
0.120934
0.0904649
0.135687
0.0554725
0.0149907
0.0547385
0.0285092
0.0531392
0.0850698
0.0424846
0.0633214
0.113829
0.0419323
0.0666674
0.0159665
0.0486743
0.0450135
0.0954557
0.00509209
0.12386
0.0425255
0.100373
0.0923837
0.028367
0.136072
0.134981
0.0349694
0.0904847
0.129705
0.0759999
0.116855
0.0960888
0.0498095
0.021426
0.0970009
0.0916965
0.0695001
0.131974
0.0552172
0.036024
0.049852
0.0183122
0.135296
0.0571381
0.122298
0.0670768
0.133473
0.0220234
0.137376
0.0857044
0.0679972
0.012517
0.0206358
0.0143982
0.0881327
0.0196363
0.0674243
0.0658011
0.0555083
0.0443239
0.124789
0.0181958
0.0916612
0.0733166
0.133297
0.00465731
0.0412033
0.122267
0.00101249
0.0853061
0.0401535
0.0507565
0.060162
0.0737723
0.00960291
0.106998
0.0432274
0.050694
0.033635
0.134727
0.0856753
0.0495366
0.0688378
0.0431288
0.00876863
0.0924785
0.123086
0.00738139
0.0882644
0.0213733
0.0469658
0.0416244
0.124091
0.00552097
0.0294447
0.0655697
0.0955635
0.000805509
0.0294958
0.121015
0.0625393
0.000668437
0.00566429
0.0326016
0.00220838
0.0209305
0.00447661
0.0410598
0.0641457
0.116886
0.0982071
0.0254817
0.0637292
0.0596113
0.000713375
0.0690853
0.0831112
0.0127165
0.0603572
0.120598
0.037806
0.0960846
0.0884793
0.121086
0.0662012
0.0123126
0.00529488
0.0611382
0.0605458
0.106426
0.0942981
0.022202
0.00643381
0.00397318
0.0973667
0.132323
0.135553
0.0579704
0.029735
0.0136201
0.127987
0.0788933
0.0105583
0.0533579
0.0586573
0.0462694
0.0657053
0.00971226
0.0651236
0.0785151
0.0712984
0.0277911
0.0596809
0.117003
0.0578435
0.0241319
0.0456422
0.0497164
0.0835459
0.0318053
0.0134278
0.0282084
0.0179169
0.0282313
0.0263305
0.00880341
0.0112567
0.0237903
0.062263
0.0442219
0.0543739
0.0336633
0.0719011
0.0394084
0.0420645
0.0801033
0.0111255
0.0269405
0.0787888
0.120726
0.081885
0.130611
0.0943863
0.0417858
0.00461053
0.0788282
0.0799352
0.0249918
0.0609344
0.0932358
0.00389485
0.117545
0.067689
0.135229
0.0901842
0.0192784
0.0404033
0.0120162
0.0263385
0.0754617
0.0167777
0.136094
0.0263574
0.131385
0.123894
0.0280051
0.121363
0.00515595
0.0929859
0.0596632
0.0974955
0.0548777
0.13064
0.0440103
0.0467131
0.114266
0.0195297
0.0253648
0.0227951
0.0400412
0.00165825
0.0442649
0.00349254
0.0411451
0.0156013
0.118367
0.0930307
0.0260149
0.00357844
0.0262623
0.107856
0.0670137
0.0178908
0.116815
0.00875348
0.123288
0.0159935
0.0388152
0.135261
0.0204022
0.0541924
0.117258
0.0511448
0.00873418
0.0634304
0.125225
0.0886298
0.00141472
0.0433259
0.109437
0.0699173
0.0298036
0.0787419
0.0161009
0.0378912
0.128213
0.122582
0.0872536
0.133425
0.0623253
0.0938524
0.0881087
0.014614
0.0655406
0.00146252
0.136017
0.0891942
0.0218702
0.000905368
0.0315186
0.0760271
0.114731
0.0400072
0.0694464
0.121214
0.0812472
0.00581413
0.0184911
0.0450608
0.00986538
0.00999056
0.0680691
0.102549
0.121391
0.0783849
0.00696695
0.0154931
0.0344817
0.0466118
0.0464396
0.0484508
0.0294207
0.0787694
0.0384366
0.118163
0.0741145
0.0051344
0.00382538
0.0303687
0.126906
0.00467769
0.0180356
0.105428
0.077736
0.115551
0.11217
0.0559828
0.0638257
0.0592267
0.0315658
0.0736243
0.027891
0.0262306
0.00420022
0.0846152
0.0840975
0.105116
0.0358495
0.116981
0.0804247
0.0631551
0.026034
0.105586
0.0208827
0.0243443
0.0070641
0.0289443
0.0668911
0.103633
0.0614743
0.0807122
0.0304179
0.0779196
0.0776305
0.0138121
0.0108407
0.122904
0.0408118
0.00881913
0.0912118
0.0179769
0.0189738
0.10632
0.131718
0.062999
0.0402144
0.02634
0.0377658
0.0638902
0.12289
0.00553697
0.0427221
0.0795963
0.0617856
0.0801927
0.0557286
0.0545106
0.055671
0.0582311
0.00174799
0.0111999
0.134472
0.0502816
0.13139
0.00172505
0.126761
0.0277777
0.042091
0.0412622
0.00930971
0.0307749
0.0398018
0.134993
0.0434438
0.121128
0.0454806
0.0707478
0.0965122
0.0228399
0.0362503
0.0572797
0.0756804
0.0250013
0.0295511
0.0998446
0.131734
0.00226783
0.122916
0.0543682
0.0817542
0.0895504
0.0712884
0.101772
0.00646014
0.131349
0.0934928
0.0880145
0.106078
0.0272404
0.0706395
0.11389
0.00490616
0.0609971
0.0716734
0.0535282
0.00586424
0.0689324
0.0651359
0.121585
0.00197902
0.0457126
0.117392
0.0432715
0.0679913
0.071705
0.0856192
0.0403426
0.0423144
0.0996877
0.0566521
0.0838174
0.0636196
0.105172
0.0119125
0.0654202
0.067653
0.0709307
0.0621455
0.11602
0.0275221
0.0896221
0.0346153
0.058955
0.0918269
0.0434872
0.0586788
0.0447787
0.0368319
0.0342693
0.121051
0.061568
0.0405182
0.113476
0.0392662
0.066172
0.0767627
0.100861
0.0628294
0.000289389
0.108482
0.11069
0.0174295
0.0324727
0.0684422
0.0122162
0.00670509
0.00891722
0.0610968
0.0249408
0.0571818
0.0435138
0.0658734
0.0911869
0.0129303
0.0141911
0.0670307
0.0561549
0.0834156
0.0548547
0.0122784
0.0332457
0.110973
0.0402687
0.0310177
0.135753
0.0278818
0.128932
0.0765326
0.0296767
0.130151
0.0996937
0.0536497
0.0152053
0.113908
0.111945
0.00773914
0.109049
0.0482013
0.0156257
0.129957
0.0485207
0.086225
0.0857526
0.129841
0.0329658
0.022014
0.0485589
0.122607
0.0362635
0.0431969
0.0381839
0.0447445
0.0443276
0.0613905
0.00501988
0.102759
0.0963322
0.0959014
0.109085
0.127834
0.0824708
0.0415865
0.0146276
0.133534
0.129842
0.0402582
0.0318105
0.12305
0.0584447
0.0235002
0.00738741
0.0840643
0.00188174
0.0909799
0.0583948
0.0467168
0.0124222
0.0770817
0.0431017
0.00735291
0.119305
0.0320604
0.0772531
0.0289456
0.0455103
0.136132
0.0151265
0.103113
0.123567
0.0152328
0.0484485
0.0744265
0.0880067
0.1305
0.00843343
0.00633911
0.0575749
0.0373553
0.092419
0.0105721
0.0893394
0.0962257
0.0905855
0.0402354
0.0591113
0.1067
0.088732
0.0517619
0.000218581
0.0485246
0.1134
0.0668732
0.0124486
0.0332059
0.0103331
0.0816551
0.019678
0.0787132
0.0209694
0.0417498
0.117753
0.0503713
0.028312
0.0571481
0.0682724
0.0959181
0.0793696
0.0343208
0.035124
0.0821083
0.0785931
0.0188172
0.0518614
0.00555569
0.0560247
0.041717
0.00315288
0.0565048
0.11886
0.0466538
0.0686615
0.123195
0.0797262
0.133627
0.0967883
0.00775446
0.0865863
0.134929
0.0698025
0.00566605
0.0430306
0.00342819
0.00615305
0.0131969
0.127991
0.0104698
0.0703911
0.0606596
0.125081
0.0357105
0.00952641
0.0631213
0.0338878
0.0837081
0.0376171
0.0865807
0.0762904
0.134358
0.00700152
0.0585084
0.0036788
0.062229
0.0777889
0.112615
0.0428722
0.0561144
0.0320681
0.120274
0.0578829
0.0693955
0.0299598
0.0271837
0.0266108
0.111057
0.0351423
0.107485
0.0407621
0.0670563
0.067062
0.0390164
0.0156231
0.0592447
0.103301
0.0580129
0.0087999
0.0521343
0.0851454
0.0915389
0.0712258
0.0464032
0.0440218
0.0549232
0.07059
0.0142338
0.0360175
0.00807112
0.129955
0.0955735
0.107007
0.0651486
0.00415239
0.0578405
0.017397
0.0145068
0.0313947
0.0681601
0.123057
0.0282589
0.00350546
0.0268265
0.0215318
0.0418368
0.0393768
0.00620133
0.0625114
0.0512491
0.123954
0.00108092
0.121449
0.0415935
0.0266472
0.0121556
0.00365625
0.0411311
0.0651759
0.0315208
0.0554109
0.0826912
0.127796
0.0676439
0.023858
0.0642025
0.0382295
0.126564
0.0193536
0.0925259
0.0405619
0.0572371
0.0967461
0.037638
0.0466898
0.0886187
0.121558
0.0853392
0.0246713
0.0324304
0.117324
0.0769352
0.0386649
0.0444991
0.015969
0.0971175
0.0570992
0.00198444
0.0303463
0.109218
0.0561485
0.0580849
0.119315
0.013526
0.0916216
0.0667036
0.0157918
0.088264
0.0221726
0.0192621
0.0363895
0.0381548
0.0757788
0.137738
0.0767074
0.013098
0.0818509
0.0532985
0.0187147
0.133676
0.0129457
0.0855588
0.0527637
0.0528623
0.112194
0.0764237
0.0338573
0.0489369
0.0831311
0.0712961
0.00462475
0.00494342
0.0222185
0.0705382
0.0894206
0.0762391
0.107039
0.0782972
0.133679
0.0961213
0.020311
0.104193
0.0546439
0.0652342
0.131721
0.0576218
0.0350825
0.0422757
0.0875007
0.0209067
0.114884
0.00245776
0.0531235
0.0761487
0.0811667
0.128778
0.103621
0.0477046
0.0514907
0.00444653
0.0242917
0.00822723
0.0734468
0.101613
0.0194087
0.00564524
0.0803809
0.0548137
0.0374327
0.0810177
0.0844154
0.0736098
0.0709277
0.135655
0.0158229
0.0272905
0.0386656
0.00077986
0.101671
0.123059
0.126773
0.106492
0.0757548
0.0332629
0.0634123
0.0552082
0.0435757
0.0144569
0.0439959
0.0960054
0.0741107
0.0822979
0.0728282
0.0987269
0.0814974
0.0229208
0.129567
0.0365271
0.121261
0.0487194
0.0585931
0.0734742
0.0502761
0.030148
0.0330305
0.0299629
0.0830234
0.00345424
0.021208
0.115889
0.0359129
0.00682748
0.0734355
0.00471313
0.00918688
0.0358166
0.0600477
0.128117
0.00442468
0.0363616
0.0146085
0.0304199
0.0591472
0.0614954
0.0717209
0.0269343
0.049505
0.0564606
0.00784685
0.076975
0.0439229
0.128907
0.0877263
0.0402059
0.134745
0.00902736
0.129796
0.0181972
0.0948521
0.024569
0.126855
0.117963
0.0583581
0.0661431
0.0205957
0.0137366
0.0982148
0.0534296
0.0704488
0.0436516
0.063954
0.0487746
0.0424318
0.0624134
0.017216
0.131863
0.0758424
0.0699608
0.0425827
0.120234
0.0544668
0.122952
0.0259437
0.101484
0.0548438
0.13049
0.0546788
0.00654567
0.0449212
0.0191796
0.0176529
0.0325072
0.0133567
0.0427744
0.0542878
0.12625
0.00954495
0.000117685
0.0169595
0.0172043
0.00484973
0.0533726
0.127703
0.00481786
0.0233339
0.0176138
0.0388004
0.0896427
0.0729421
0.0849848
0.0550567
0.0625982
0.0124883
0.0609297
0.00810221
0.132213
0.0154218
0.0109341
0.119009
0.0429608
0.0330722
0.0994267
0.0991584
0.0539494
0.071722
0.0649918
0.0074341
0.00651701
0.0754316
0.133735
0.136225
0.0127887
0.0643091
0.0913557
0.0238053
0.0623849
0.0288557
0.0218067
0.131049
0.0646002
0.0256451
0.0432666
0.00675155
0.0193301
0.0601713
0.0268268
0.0138203
0.0795805
0.0723444
0.0449205
0.0535031
0.0276097
0.0738678
0.0496155
0.108855
0.030829
0.00257871
0.0139501
0.0330112
0.0444093
0.0161223
0.0823562
0.0504838
0.124595
0.0354298
0.0648601
0.0537376
0.0427134
0.00546838
0.0828003
0.0534814
0.0256899
0.0788233
0.0449023
0.0825371
0.0445876
0.115866
0.104826
9.60811e-05
0.017152
0.0294495
0.0742704
0.116619
0.0266796
0.00848274
0.0250003
0.0467021
0.134262
0.0203936
0.0355293
0.122667
0.133858
0.0717026
0.0835606
0.00604468
0.0428537
0.124274
0.117544
0.132296
0.101843
0.0580326
0.112468
0.0829689
0.133006
0.0859267
0.134953
0.0440902
0.0483879
0.0624037
0.0716426
0.066127
0.0456891
0.126262
0.0126099
0.135531
0.0508737
0.021517
0.0362743
0.0502285
0.057705
0.0798936
0.0970553
0.115914
0.12874
0.0377741
0.0227527
0.063787
0.02271
0.00421931
0.0328978
0.132863
0.0602136
0.0295483
0.0410874
0.10449
0.105938
0.0501391
0.0286223
0.109463
0.0138205
0.0151516
0.0515618
0.121035
0.131181
0.120613
0.0158599
0.112511
0.0539828
0.124598
0.124166
0.077218
0.00637907
0.134344
0.0316347
0.0915271
0.0649875
0.0402739
0.127996
0.00220301
0.115855
0.0107926
0.0805456
0.0442053
0.130191
0.0850986
0.0593075
0.00422261
0.112414
0.0047764
0.0523705
0.113124
0.0485308
0.0681157
0.0406731
0.099867
0.125447
0.0719
0.0448313
0.123786
0.057759
0.0131279
0.126292
0.058455
0.0595774
0.134079
0.111204
0.0544593
0.00833804
0.0152026
0.0790619
0.0685992
0.0431452
0.00771647
0.00462429
0.0857318
0.130729
0.0034031
0.0395112
0.0810973
0.0999227
0.0503134
0.121528
0.0478043
0.0874638
0.0838929
0.0754687
0.124217
0.114655
0.0649531
0.105433
0.121456
0.00297775
0.0638037
0.00545727
0.0584736
0.119711
0.106173
0.081869
0.0656598
0.0928886
0.0268097
0.0874062
0.0594924
0.0307467
0.0445883
0.0541862
0.129663
0.0730943
0.0615714
0.0608201
0.0157957
0.0167167
0.134238
0.0570687
0.0866142
0.0638909
0.0696535
0.0401266
0.0223006
0.0965531
0.0782563
0.1296
0.0233334
0.0868486
0.000167803
0.107789
0.134683
0.075113
0.101056
0.00063535
0.0375088
0.136211
0.0959854
0.0483518
0.0875181
0.0668515
0.00556963
0.0178594
0.0954909
0.0347326
0.0296106
0.0647942
0.0491199
0.054259
0.0720597
0.0796506
0.135673
0.065301
0.0550179
0.0178793
0.127299
0.0423538
0.0777004
0.0196114
0.041209
0.0665448
0.0943756
0.0320405
0.0535126
0.0133867
0.00570227
0.0642791
0.027492
0.0401689
0.0217661
0.0178968
0.0108918
0.0336271
0.0809113
0.0761298
0.0246698
0.136147
0.00121914
0.137217
0.0654033
0.132421
0.0594008
0.0505337
0.0792746
0.0271924
0.10804
0.116316
0.120259
0.0226445
0.0204332
0.132323
0.05144
0.0137386
0.0106618
0.080535
0.0213427
0.116307
0.0592081
0.060341
0.0484796
0.0837577
0.0284678
0.00766296
0.0757577
0.123
0.0272542
0.0515453
0.0828943
0.01243
0.00383159
0.0489484
0.00947311
0.00187383
0.0378803
0.0864294
0.020853
0.0741378
0.00994041
0.0786181
0.0551286
0.0457764
0.0419898
0.0381686
0.126195
0.109545
0.122454
0.132619
0.00868091
0.0132411
0.0245283
0.0282048
0.115438
0.0958453
0.00939276
0.00856535
0.0516791
0.0387043
0.064095
0.0368722
0.0242293
0.111587
0.00791419
0.08397
0.0975381
0.0862313
0.0862474
0.0344949
0.0274485
0.0668169
0.0299716
0.136308
0.0430243
0.0989474
0.0285031
0.0337244
0.0478374
0.0196418
0.034232
0.00468662
0.0781315
0.0554174
0.0614738
0.020766
0.038023
0.0820704
0.0795673
0.0277464
0.0434135
0.0627025
0.0197334
0.0861886
0.0444625
0.0123528
0.123681
0.0682717
0.137632
0.0872415
0.132335
0.0210598
0.0860049
0.00644156
0.113862
0.034284
0.115649
0.0946728
0.00551586
0.0642092
0.093376
0.00337158
0.0559702
0.124514
0.0764744
0.0165549
0.0335543
0.00301449
0.130591
0.014339
0.0103638
0.0892412
0.134035
0.0289312
0.116991
0.0312208
0.037366
0.0437626
0.0070035
0.127966
0.132153
0.0485847
0.115158
0.0408314
0.115133
0.122567
0.0412705
0.0450555
0.0737402
0.10621
0.0480798
0.107848
0.0972424
0.0932768
0.0652063
0.113586
0.0728243
0.0114865
0.102132
0.00426184
0.00362072
0.0943535
0.0665296
0.12259
0.0773724
0.132485
0.0174768
0.0547825
0.0456681
0.0649128
0.111433
0.0417432
0.0459622
0.0133221
0.00194124
0.114945
0.0627891
0.129898
0.0348056
0.0778909
0.0567603
0.0802648
0.0860122
0.0850592
0.0960054
0.0258099
0.0749491
0.0617053
0.0461687
0.0833725
0.0178513
0.0263057
0.0580828
0.0469908
0.0692231
0.0844362
0.0463292
0.132439
0.134042
0.0453553
0.00812517
0.113123
0.0626029
0.124771
0.00714608
0.0593955
0.0811025
0.129603
0.114496
0.0363523
0.0287882
0.0181459
0.0554335
0.116194
0.105803
0.135833
0.136938
0.107918
0.0888624
0.0470014
0.0199908
0.0905178
0.0295975
0.0516678
0.136916
0.0990677
0.136713
0.0692281
0.102713
0.050545
0.101099
0.000719282
0.0183904
0.0956258
0.0500628
0.0879716
0.0366357
0.136216
0.0712993
0.0538875
0.0148777
0.0718666
0.109632
0.124644
0.0741098
0.0740932
0.0975424
0.0132824
0.0782055
0.0733695
0.123591
0.0341872
0.110525
0.0558544
0.0432624
0.0979387
0.0107259
0.114294
0.031992
0.0788726
0.0069443
0.0396641
0.0475695
0.115337
0.0138715
0.0686256
0.0732479
0.0757367
0.0802216
0.0919612
0.123072
0.0195133
0.0340683
0.110285
0.049179
0.0113594
0.104654
0.115713
0.0561275
0.0325651
0.136823
0.0242827
0.0852386
0.0716832
0.0349425
0.0110953
0.113316
0.0128124
0.0019551
0.127499
0.00514818
0.10151
0.08863
0.100931
0.136628
0.0504158
0.119575
0.0333487
0.138929
0.0438237
0.13417
0.104822
0.051241
0.128764
0.113738
0.079649
0.101644
0.0579717
0.0554741
0.00248574
0.122157
0.0862357
0.0705147
0.0557076
0.0460991
0.124571
0.0303296
0.0113492
0.0608999
0.0354625
0.0478574
0.0137467
0.056203
0.0409948
0.0667787
0.000410527
0.0673293
0.0915286
0.106458
0.025215
0.00996469
0.070873
0.11942
0.125516
0.00813669
0.0222193
0.0413921
0.046601
0.0244445
0.0259999
0.0481154
0.0444173
0.13087
0.0562837
0.0719211
0.00486076
0.0722417
0.0759606
0.0138531
0.0359623
0.0541545
0.130807
0.13627
0.124873
0.115791
0.0618103
0.0695007
0.00528019
0.0274677
0.0810563
0.135146
0.041083
0.0854827
0.0496547
0.0393494
0.0377611
0.0966442
0.00508873
0.0124494
0.111456
0.00306601
0.0399884
0.028182
0.0151948
0.0142475
0.0455164
0.0560399
0.0105904
0.0369835
0.0173861
0.0465122
0.0647457
0.119353
0.0755039
0.102777
0.122152
0.126433
0.0851274
0.102777
0.0823818
0.111363
0.0541264
0.0975511
0.127285
0.119573
0.0336643
0.00589845
0.118193
0.0406412
0.0883081
0.130253
0.0771467
0.0218143
0.108345
0.00366725
0.0854207
0.0556994
0.0445678
0.0185351
0.0128395
0.047515
0.0457456
0.0627794
0.038584
0.0304345
0.0761759
0.101536
0.0800844
0.0887713
0.134711
0.127953
0.0405
0.117205
0.08145
0.0740744
0.0176596
0.0090487
0.00847928
0.0163024
0.00322714
0.127337
0.0312491
0.124479
0.0466707
0.038597
0.0444645
0.00473988
0.131304
0.0723336
0.0855138
0.136949
0.0878117
0.0597824
0.0999641
0.0292342
0.0652264
0.0776733
0.0261812
0.0747499
0.0732847
0.0221434
0.0409102
0.0835289
0.0232431
0.0403817
0.0873801
0.0294589
0.105944
0.0647539
0.0185797
0.0427053
0.0412707
0.0395518
0.126794
0.0579389
0.000687565
0.0742755
0.0481738
0.0509415
0.00960517
0.00954246
0.00979253
0.0557116
0.130418
0.078413
0.0335537
0.116194
0.0854593
0.0724497
0.0274624
0.0920669
0.0678708
0.00842989
0.0216601
0.0777058
0.0247396
0.0946718
0.0734735
0.0153618
0.132824
0.0942451
0.0855614
0.0538347
0.0769668
0.0582276
0.123704
0.00558435
0.0454802
0.0894408
0.0607561
0.0341819
0.131294
0.0948282
0.122683
0.126631
0.027072
0.0897207
0.0244157
0.063746
0.005651
0.13768
0.0392082
0.0747334
0.111544
0.0629535
0.0721632
0.0200843
0.084465
0.00850124
0.0665276
0.0667924
0.0646281
0.0360798
0.128011
0.0240739
0.119021
0.0302401
0.0566132
0.0354408
0.03138
0.00736154
0.0717373
0.0561959
0.0438962
0.0294729
0.0118191
0.0293797
0.0178228
0.130892
0.0298138
0.0125313
0.103569
0.100213
0.127598
0.119195
0.0738232
0.127652
0.0389528
0.048428
0.0907977
0.131103
0.0753919
0.136383
0.0476081
0.00508204
0.0252387
0.0277434
0.0993704
0.104345
0.0805291
0.0337407
0.064315
0.00201492
0.0781823
0.124687
0.055621
0.129507
0.0378164
0.0949101
0.0838061
0.060331
0.0761057
0.0573678
0.0450101
0.0988206
0.0479069
0.0899796
0.0954017
0.0190202
0.016864
0.0237035
0.112954
0.12036
0.0189102
0.133503
0.0182432
0.11385
0.0642652
0.0774097
0.101178
0.133913
0.0404234
0.110603
0.130101
0.0580859
0.0987611
0.020042
0.108963
0.134038
0.138303
0.0806105
0.0413996
0.0660817
0.0957463
0.117724
0.0948326
0.00535182
0.12241
0.0556931
0.0304323
0.134639
0.133931
0.0280404
0.0165507
0.0756368
0.0692904
0.116289
0.00066403
0.0147314
0.062861
0.00169876
0.0938834
0.0512664
0.111287
0.0395238
0.0179083
0.0956185
0.0502029
0.135669
0.0958211
0.0120661
0.0104525
0.104238
0.0443701
0.0118516
0.086785
0.0278783
0.0709972
0.102315
0.10275
0.0408117
0.0717582
0.00357092
0.0961909
0.118525
0.00954156
0.0134538
0.0595362
0.0504852
0.109281
0.132815
0.00876484
0.0728769
0.100741
0.0734997
0.0446554
0.0500929
0.0194765
0.0759337
0.0423108
0.0921615
0.130103
0.118163
0.08133
0.00394349
0.115911
0.017995
0.019907
0.0323516
0.0363836
0.0029344
0.0872002
0.0867198
0.00632236
0.0559463
0.0137204
0.0738993
0.00643741
0.0325074
0.0790949
0.0473852
0.11847
0.0471414
0.0944506
0.0493096
0.0425392
0.0684288
0.0956735
0.0926419
0.0153925
0.0318217
0.0844067
0.105493
0.00727841
0.112545
0.0378058
0.115992
0.129318
0.0121509
0.131828
0.0597583
0.0956387
0.104453
0.0647528
0.0849308
0.0910325
0.083231
0.0364984
0.0560695
0.0390626
0.0745171
0.0100711
0.0893233
0.0567645
0.126426
0.0702675
0.0649879
0.0955196
0.117076
0.0799126
0.114147
0.0784473
0.0480318
0.0154161
0.0369304
0.00214641
0.0195547
0.13368
0.0640996
0.105966
0.0108855
0.133887
0.0285976
0.108162
0.0913986
0.0186522
0.0570427
0.0231057
0.120221
0.0349161
0.00491621
0.0445718
0.0319084
0.100488
0.0150997
0.0925805
0.021083
0.132013
0.0251103
8.57784e-05
0.0417836
0.0423407
0.0689002
0.119442
0.0305654
0.0629541
0.0811096
0.00127871
0.063937
0.0736647
0.0941424
0.126016
0.0753392
0.0707462
0.012802
0.0304242
0.0522974
0.0214399
0.0149272
0.110194
0.00120538
0.135171
0.0837833
0.0269148
0.0688255
0.0910138
0.0662421
0.0499019
0.0393793
0.0223476
0.0420041
0.111925
0.0113965
0.125157
0.037834
0.0383757
0.0337112
0.0340243
0.133448
0.0728766
0.0827594
0.0392561
0.0187112
0.117415
0.0361412
0.0152885
0.125203
0.00309642
0.0557364
0.136432
0.0165547
0.126794
0.0607975
0.0704518
0.0101965
0.132685
0.0142614
0.120308
0.114191
0.0814066
0.0190796
0.00513585
0.0875532
0.00755961
0.0450776
0.0965714
0.0896935
0.0373471
0.0319406
0.10076
0.131069
0.00535273
0.115238
0.114441
0.019506
0.109099
0.0455313
0.0282194
0.0818876
0.117028
0.103991
0.0388151
0.0694014
0.0352539
0.0808735
0.0290311
0.0433286
0.0290571
0.0484418
0.0401271
0.117854
0.122635
0.000348609
0.0358241
0.0387491
0.000295477
0.0574922
0.00708058
0.0927723
0.135466
0.0189456
0.133398
0.0165208
0.0470642
0.0292736
0.136361
0.0930622
0.0118714
0.0261856
0.0944039
0.0989518
0.0557369
0.020351
0.00381262
0.0267262
0.0962995
0.0224638
0.0369223
0.0695672
0.0914173
0.1148
0.0350106
0.0836975
0.042921
0.135703
0.00711666
0.0244308
0.0595527
0.123546
0.00741288
0.0850408
0.0406266
0.0215386
0.0790033
0.0358634
0.0532401
0.0132755
0.121295
0.0285404
0.00655919
0.0646113
0.00929863
0.0798314
0.104558
0.0459374
0.0592847
0.0024179
0.0798549
0.050106
0.074622
0.130655
0.107055
0.0780408
0.114159
0.133029
0.00461192
0.126184
0.00568748
0.0160331
0.0408254
0.0925134
0.0639233
0.096301
0.0088067
0.10451
0.110918
0.0382856
0.0334258
0.0372567
0.0534414
0.0604347
0.00995855
0.131857
0.063513
0.0383404
0.0304304
0.0418997
0.0385724
0.087781
0.0454384
0.0751802
0.123424
0.0471587
0.134558
0.0938286
0.136339
0.0470585
0.0702445
0.118212
0.0427037
0.0209873
0.020011
0.118984
0.040996
0.114849
5.37863e-05
0.116687
0.0882201
0.0668448
0.0832016
0.0937267
0.133665
0.0580491
0.0143636
0.0839545
0.0453345
0.0503433
0.135865
0.106138
0.130462
0.0587898
0.0633591
0.0629505
0.115006
0.0587869
0.0767132
0.115616
0.0271627
0.119984
0.0210911
0.133218
0.0234343
0.103386
0.125194
0.0905203
0.00696749
0.113354
0.133178
0.0107664
0.0879607
0.0407601
0.0741524
0.112182
0.0769432
0.0429749
0.106154
0.0605164
0.0360911
0.00764779
0.0657383
0.0256573
0.0301474
0.123564
0.131607
0.0677959
0.00657104
0.097195
0.128299
0.0305481
0.0701639
0.0986279
0.0466659
0.0777605
0.0948792
0.0390864
0.00469551
0.136031
0.0194573
0.120991
0.108925
0.0398079
0.0772713
0.0941329
0.0477795
0.0989152
0.116591
0.061434
0.0676997
0.0367506
0.0720733
0.0402518
0.0197398
0.0588025
0.122167
0.0121802
0.0679557
0.0730664
0.0732633
0.0169062
0.0718002
0.0720719
0.116442
0.107857
0.0908477
0.120478
0.0214526
0.127425
0.114807
0.00117807
0.0594947
0.00729441
0.0122941
0.00421989
0.015487
0.0871549
0.0761583
0.041281
0.00127202
0.128696
0.112186
0.0420291
0.117898
0.0522847
0.0376261
0.0197637
0.0920262
0.103966
0.0679542
0.10005
0.0577122
0.132407
0.128182
0.129808
0.0481218
0.00918653
0.0592722
0.109839
0.0737681
0.0855547
0.00636934
0.122211
0.108991
0.120346
0.0220833
0.10066
0.0598343
0.0504061
0.12528
0.0114245
0.0367297
0.13192
0.0856277
0.0626892
0.0169685
0.0627211
0.111969
0.082839
0.0498759
0.0605847
0.0108931
0.0450692
0.0837996
0.129107
0.130222
0.00520113
0.0411356
0.00224996
0.0338893
0.00767362
0.0212735
0.00532784
0.126588
0.0220058
0.0503378
0.00908567
0.0683942
0.00240507
0.0757038
0.134464
0.0712687
0.0355563
0.114486
0.116242
0.120429
0.122741
0.099343
0.00233666
0.04348
0.00931139
0.135785
0.0124394
0.0900725
0.087222
0.0881904
0.0107048
0.134408
0.132146
0.130899
0.00693377
0.0672834
0.1344
0.122427
0.0461871
0.0415397
0.127705
0.067213
0.0984912
0.0602175
0.0382626
0.0126648
0.114042
0.0512898
0.033901
0.123253
0.0593535
0.0575986
0.117214
0.119256
0.115588
0.0534106
0.0395367
0.0940591
0.0598714
0.0172371
0.0800757
0.129215
0.01731
0.0271799
0.0264458
0.0426894
0.117482
0.0492781
0.125609
0.088161
0.087695
0.0965406
0.134473
0.115863
0.0119519
0.0447287
0.136847
0.124673
0.133218
0.0252891
0.0738579
0.0336066
0.0641351
0.0537475
0.0761421
0.115529
0.00400819
0.0267052
0.111014
0.0831062
0.123121
0.0319106
0.0580354
0.0122978
0.00636785
0.0931785
0.0310113
0.0148008
0.0754864
0.0763137
0.134647
0.0638457
0.13339
0.136305
0.0033002
0.0652286
0.0404169
0.080551
0.0982479
0.0542833
0.084472
0.109274
0.0958426
0.0317496
0.1235
0.135135
0.0624446
0.118794
0.0471029
0.122359
0.0924517
0.124186
0.0855961