/*--------------------------------*- C++ -*----------------------------------*\
| =========                 |                                                 |
| \\      /  F ield         | OpenFOAM: The Open Source CFD Toolbox           |
|  \\    /   O peration     | Version:  4.0                                   |
|   \\  /    A nd           | Web:      www.OpenFOAM.org                      |
|    \\/     M anipulation  |                                                 |
\*---------------------------------------------------------------------------*/
FoamFile
{
    version     2.0;
    format      ascii;
    class       volScalarField;
    location    "200";
    object      p;
}
// * * * * * * * * * * * * * * * * * * * * * * * * * * * * * * * * * * * * * //

dimensions      [0 2 -2 0 0 0 0];

internalField   nonuniform List<scalar> 
14558
(
144.342
6.15141
142.981
5.86277
199.599
93.1957
154.827
185.712
184.967
151.058
84.5471
144.018
185.279
205.562
-10.3417
90.8243
102.836
70.9231
-10.1366
187.593
-18.7994
71.7488
175.358
-21.8109
80.8084
177.752
-12.2045
101.189
149.055
64.2275
112.728
92.2296
198.675
-23.6122
34.0843
147.575
174.965
186.129
155.824
-16.3601
-5.96641
66.9835
3.31701
54.61
96.2394
111.277
177.757
139.741
138.689
66.3205
91.2159
48.2816
202.139
149.603
134.752
154.413
-23.6442
153.844
156.553
104.262
159.611
167.047
-16.8051
154.46
1.58793
184.355
185.647
101.703
137.207
185.79
143.405
-7.18985
87.3687
-18.6289
212.892
141.487
196.211
108.456
157.759
175.951
89.5749
37.5264
-5.26231
-17.7581
-27.7976
-26.7716
10.6814
42.1676
-25.916
84.2188
79.8517
130.039
-28.5268
65.3792
-20.1247
197.514
183.232
175.145
184.377
7.33792
148.872
29.9143
196.955
78.1071
178.233
189.951
154.157
69.4265
197.872
183.323
2.0781
37.0509
180.791
181.373
40.4502
-18.6251
-7.72325
163.736
116.189
120.239
62.6398
123.288
188.355
-18.8433
17.821
2.72696
-2.31139
166.687
108.588
166.6
122.72
209.933
-29.0774
195.828
181.956
148.16
128.885
37.2999
44.6418
3.16342
111.405
130.577
140.784
-17.099
-5.48855
146.672
173.619
184.467
190.182
189.96
165.802
146.64
172.264
100.623
161.062
181.789
148.766
196.885
181.717
-12.0179
-15.1801
4.46882
159.336
173.467
86.3684
178.362
180.304
54.6741
190.391
182.091
174.129
157.239
90.7573
200.563
182.186
23.271
-0.749803
147.651
188.428
1.59861
145.459
182.659
138.771
190.365
203.995
181.905
-28.5451
169.212
161.28
122.885
168.52
161.577
2.33266
185.583
17.6904
-11.5098
111.863
200.959
191.791
187.769
-2.15336
182.015
-95.1036
167.501
144.203
210.665
185.586
25.1153
55.077
137.243
110.739
182.87
182.546
-14.6793
160.24
184.791
149.839
110.864
172.529
193.451
4.81755
144.174
103.64
178.494
186.127
179.77
166.007
124.814
73.0778
180.691
183.067
169.124
157.572
119.192
-9.02671
102.765
112.003
143.913
145.775
58.2233
-26.8538
169.081
139.867
66.3003
6.65549
-14.1309
173.671
128.613
77.0455
172.132
188.361
183.736
182.051
144.029
60.4451
179.855
188.106
129.546
182.963
180.266
179.662
-14.7431
127.521
141.315
-31.0824
126.891
167.369
-24.8909
96.3149
1.88105
131.293
181.327
177.885
175.344
181.473
196.505
56.4226
155.101
-26.5692
279.003
188.229
145.944
182.196
177.015
144.509
129.906
99.2859
178.883
166.057
35.2185
95.2841
181.494
204.824
79.326
202.484
160.488
99.5892
110.247
-15.5687
0.584795
63.7642
39.2263
198.719
208.741
170.668
120.887
208.649
182.578
197.784
94.7979
177.994
96.0215
142.455
173.814
93.8591
52.2195
171.312
170.744
-28.6904
182.146
199.701
-29.2715
102.743
187.737
144.717
96.1923
-8.27098
195.935
180.418
96.472
173.838
-3.64638
187.788
88.855
55.4765
-10.5868
-7.8859
168.024
125.029
47.6559
188.648
162.665
199.049
182.818
40.6341
-19.0051
-25.4516
87.8967
126.708
124.141
165.14
192.117
138.329
121.986
31.5679
182.256
99.8223
-9.87786
47.7302
134.69
181.437
58.9714
172.175
153.972
185.83
179.483
155.716
-17.102
125.249
-6.85145
159.901
173.72
120.358
115.723
78.3588
178.049
-17.0613
31.9259
104.23
149.966
-26.4951
145.756
184.465
182.093
180.963
105.849
144.276
167.723
193.828
84.1671
202.207
16.7822
172.112
-140.119
-12.4922
39.007
162.715
-4.36867
-4.01541
190.191
201.059
170.491
181.753
50.6882
-12.1036
185.014
40.4039
-22.3297
91.8198
43.0961
188.838
92.2974
21.8222
181.828
131.541
21.2207
193.511
151.231
172.346
80.3762
-29.2817
97.7044
196.284
150.529
18.1346
128.919
264.998
-9.12125
130.775
150.987
204.974
147.317
159.036
198.689
20.8066
184.533
188.237
181.825
164.342
113.692
100.185
68.9211
29.9405
132.686
118.874
165.113
180.913
183.107
182.766
-12.1965
59.0307
14.7682
-19.0195
171.586
123.831
14.0981
-18.5167
148.998
110.654
182.383
167.741
-14.885
167.008
158.23
-29.5453
166.016
200.747
187.174
173.534
-1.83719
86.0724
91.9171
146.44
9.12158
184.22
174.536
-11.3835
176.024
170.889
196.211
115.728
-13.7894
-15.1185
200.858
33.403
93.4246
175.038
172.516
-5.06734
150.198
162.815
190.249
68.2675
-22.3298
209.356
186.98
173.316
203.321
147.661
105.701
103.533
-14.7792
133.806
158.175
142.272
116.49
10.346
174.067
199.926
94.3046
-2.0151
-12.0321
-14.5841
143.317
186.264
154.7
181.559
-27.6725
182.891
13.2151
180.974
81.5436
166.607
145.722
169.367
170.829
50.3783
156.822
-4.40491
-20.5443
189.588
78.1515
145.781
142.737
66.9666
10.8186
-21.98
177.837
165.705
167.612
112.634
92.4728
101.211
3.29314
107.183
119.437
161.334
182.862
171.891
182.511
192.693
153.29
187.528
141.981
46.1758
84.577
208.107
-7.48813
146.486
172.381
88.659
-1.79268
118.002
193.151
-20.6049
120.877
152.185
160.597
109.694
206.209
173.271
4.67815
173.58
181.531
94.2767
249.566
62.9269
174.472
113.578
110.65
181.404
173.311
175.456
148.625
182.798
176.513
-3.59749
148.766
-28.8
182.014
-22.828
92.6784
170.26
22.3327
158.483
112.317
-1.9584
126.106
142.92
-9.12154
93.6697
53.7452
25.3804
123.047
96.0971
35.7041
166.105
181.189
137.365
182.139
45.0411
170.61
-19.2035
-3.9121
165.457
193.709
-22.6957
35.3677
-24.0536
-17.9422
146.16
189.182
189.295
177.484
179.695
-13.6788
104.047
89.3963
-5.91074
147.764
-11.9506
68.3995
-35.922
170.215
-10.781
145.759
174.543
171.388
50.458
99.9269
174.037
101.292
-2.47241
175.157
181.552
139.178
83.8386
104.965
181.049
83.4904
194.071
63.66
-10.2328
157.312
129.545
-29.8041
170.55
25.3949
119.471
191.907
180.653
206.618
171.639
184.431
107.529
161.716
114.496
178.533
6.72455
87.0687
177.085
146.773
94.2408
177.586
-23.7043
12.7109
33.7898
134.784
164.086
98.5455
-28.8428
194.116
152.872
181.22
184.41
198.107
165.604
-19.7321
160.396
188.154
184.148
104.53
435.265
199.457
-8.97674
69.42
58.4996
175.84
189.269
173.509
189.151
66.6075
205.95
203.218
196.193
189.498
160.062
-25.8189
93.5664
15.8195
171.056
-6.15989
56.1623
145.661
61.3975
106.93
179.609
9.6829
35.1367
219.068
100.82
124.66
182.123
-17.1523
-22.9958
179.32
183.749
63.4227
0.507352
170.051
1.13772
82.7325
85.4802
109.029
167.719
142.647
180.831
185.472
49.7621
141.442
153.124
1.20364
71.8843
65.1188
78.044
153.628
182.743
113.238
160.516
172.868
170.22
131.51
177.834
48.5016
151.49
196.293
209.879
104.279
222.557
104.418
204.534
155.118
102.869
74.3059
61.7803
139.714
192.103
-2.87296
172.076
-20.893
34.6783
180.025
4.23645
199.085
-3.95506
98.008
146.31
33.5137
196.441
181.906
171.547
178.779
187.58
204.287
150.387
102.466
266.234
-0.855529
160.86
-18.9391
172.999
-11.4127
-20.7117
184.47
181.574
189.143
189.137
99.1501
-7.67577
93.8217
-13.5296
98.3853
138.047
-24.8398
180.689
88.6949
151.651
151.862
188.538
103.634
156.532
94.8651
182.028
-27.2054
-7.26457
143.065
186.466
115.292
184.19
169.296
201.863
174.271
175.42
-26.8941
146.84
93.4294
-14.6469
192.982
95.3089
-21.0042
142.663
-53.241
172.166
-15.1469
55.925
184.928
92.1832
-16.1872
48.6998
173.51
63.507
157.624
115.225
-12.1487
-15.525
9.88024
-19.2871
114.161
182.093
172.836
182.958
144.215
157.293
-15.5505
-7.89703
60.4035
188.579
33.3237
192.509
12.9046
102.546
178.23
-27.1287
186.94
327.634
-11.82
127.638
140.515
82.8599
178.383
183.112
-7.57683
181.572
142.869
31.5969
168.493
149.471
-8.32359
84.307
142.749
166.187
46.4617
180.316
206.765
170.121
209.146
121.342
180.848
155.445
39.7334
3.39746
168.77
-8.08047
3.31652
145.377
83.7951
132.677
155.075
82.8574
171.088
140.558
138.184
170.411
184.035
-11.6037
168.253
181.95
197.931
53.569
85.6045
183.923
159.526
178.554
111.116
177.806
158.534
183.251
55.7643
-2.49202
161.938
25.1662
58.6076
134.211
141.658
-23.7026
148.905
190.648
194.968
54.1105
139.16
-26.4998
-15.0727
105.435
106.196
256.633
112.893
207.097
181.464
162.291
100.569
16.3055
123.539
197.288
148.371
143.981
67.0494
124.499
184.924
196.018
-14.3333
140.603
-1.53661
105.346
-20.3659
148.327
3.95388
96.5059
172.364
96.1287
99.736
-6.97951
173.471
-11.4383
99.3509
59.4514
173.146
193.256
150.351
172.929
28.1144
85.7276
165.41
25.8047
-22.6594
-50.2937
-25.8961
41.4228
197.315
-4.70482
203.227
24.9037
160.263
-23.9431
-8.43635
19.7063
6.47761
143.816
180.484
182.565
109.108
206.452
156.794
66.3205
170.624
205.997
74.5901
181.081
186.717
90.5235
180.638
99.6389
161.081
89.4142
24.5921
71.4769
21.6896
173.78
117.133
-5.48298
170.874
183.847
203.036
85.7442
186.115
162.752
208.542
8.72275
175.074
192.789
123.282
168.352
-6.1924
81.8178
172.12
96.5935
152.918
174.242
-26.4825
103.527
100.652
182.931
120.024
104.047
28.9281
-24.9348
166.673
186.273
-3.11062
-5.4772
123.269
167.557
204.47
156.878
198.475
57.2563
99.7172
173.752
163.841
78.4123
166.173
3.29793
185.328
135.62
85.4247
157.42
196.025
160.792
167.297
162.088
183.731
149.562
133.98
-12.8277
167.846
-10.6052
100.039
273.869
174.195
183.367
142.943
165.079
-20.5974
-34.9208
16.1849
182.097
96.8308
211.628
-12.4031
88.1486
195.039
6.30807
-22.6815
171.451
222.491
147.049
-4.63478
86.1203
154.093
149.597
139.799
180.258
145.847
-23.4122
186.143
190.513
24.0786
183.157
181.196
16.5243
68.1885
152.333
-4.80301
-19.7407
218.181
125.164
-8.92916
166.124
282.075
128.772
172.353
76.2636
192.392
40.5229
117.719
106.889
179.211
147.04
157.861
174.803
113.975
-7.55063
25.2913
-6.6274
180.156
179.412
11.5487
-3.53673
110.963
133.561
50.3035
186.042
-24.0559
119.297
196.978
170.536
153.568
11.0763
160.542
193.986
-14.8067
-1.68764
94.5217
96.442
184.903
-1.15989
212.046
186.756
146.572
-27.9898
53.5518
18.0287
121.136
220.686
69.7255
32.7998
171.249
140.2
72.4702
182.226
84.78
168.642
150.663
177.255
-20.0564
21.9205
110.339
175.594
11.8076
179.504
190.424
89.3157
160.096
125.754
166.191
-23.5939
159.021
-14.5777
188.801
88.7371
181.389
168.906
181.121
-21.1878
179.705
22.8172
180.907
155.199
198.344
151.065
205.403
212.39
117.739
-24.7315
162.188
57.8666
45.2939
-3.13679
106.319
187.959
111.9
172.453
185.41
103.315
198.631
197.309
-21.9833
-15.39
61.2159
142.563
200.605
29.4077
6.34479
96.9797
172.409
187.928
-28.4972
108.634
38.8636
128.742
164.844
121.887
183.204
160.644
-30.8295
133.08
151.564
169.232
125.835
163.562
135.388
17.8727
67.9401
159.338
224.354
31.2261
-9.99338
43.2103
148.36
93.1484
148.723
153.921
52.1514
108.708
159.545
0.3404
-22.1381
184.85
52.3263
136.802
102.018
29.6142
204.971
172.28
56.0526
-7.90901
181.165
167.472
272.408
176.722
80.2364
231.975
4.36874
208.555
82.9423
4.6324
178.788
176.412
95.7915
126.978
176.241
195.14
174.157
151.684
158.865
146.464
171.593
-23.0245
142.083
-5.47663
201.036
141.041
-19.5877
-0.337463
192.262
151.578
70.9906
184.663
27.2658
105.877
188.85
-10.6859
27.6494
169.203
165.81
182.124
24.2594
82.0031
115.257
143.004
36.9245
180.307
33.7214
143.002
17.3367
19.0213
151.068
181.747
175.609
40.0367
179.708
116.796
-2.17581
189.636
183.587
148.566
169.663
96.3683
180.278
24.0891
200.055
198.219
176.597
32.7219
-15.4629
195.051
198.889
137.857
144.353
182.977
73.6425
140.612
153.783
186.32
179.771
357.244
194.565
142.611
198.472
187.574
28.246
185.39
165.099
-32.2553
190.356
158.164
-15.8435
161.309
170.195
178.697
68.4885
94.7419
85.9117
-6.82709
174.446
-18.4325
81.1425
147.206
-5.30875
202.535
181.296
-0.0562714
141.766
130.114
270.545
67.3316
159.591
60.4983
12.1862
4.4568
141.19
63.9078
77.827
174.52
17.4167
173.362
200.317
91.8431
-17.6583
-10.0461
167.366
203.469
188.857
29.0574
181.471
-6.37528
-11.9635
55.8706
158.009
99.5554
112.414
162.909
194.396
74.9122
-14.6143
117.482
197.986
182.334
183.459
168.425
183.459
-11.4122
98.719
-4.10172
142.578
-7.61888
37.2101
146.803
126.445
163.934
170.137
191.26
184.223
116.35
-32.4688
167.442
112.908
198.803
99.0477
202.054
102.872
209.74
-20.4749
73.54
21.8548
181.196
163.786
141.182
-7.14601
3.35873
146.622
106.358
145.106
174.733
169.328
153.867
-11.6437
60.8756
168.483
180.626
186.557
-19.8886
-6.04524
-7.02091
190.502
5.101
-11.1824
122.394
89.4645
177.172
98.5292
186.481
179.126
87.4457
85.6554
170.603
112.99
96.4169
177.68
137.647
178.895
28.7565
42.0637
128.534
-24.406
110.686
175.159
187.746
18.895
127.922
-19.3743
123.024
34.9809
93.0526
105.515
125.055
176.622
200.12
24.8079
150.065
-10.167
186.659
187.18
192.599
34.291
28.8007
79.8479
-23.4748
188.461
-2.22237
146.418
95.6673
185.747
190.221
22.7579
162.647
211.717
180.014
111.195
103.282
-17.0246
314.303
191.148
9.15559
75.8012
128.561
8.79853
189.364
207.899
172.457
186.845
179.943
185.729
169.706
-9.81205
-12.3333
163.325
106.305
174.717
181.261
146.731
-7.69993
211.87
-8.96961
205.221
198.127
137.584
129.75
225.793
147.765
183.868
203.006
52.4054
36.0381
89.2588
133.487
137.692
122.199
152.099
4.64228
163.94
152.803
290.691
110.164
169.122
121.999
186.418
89.1047
-25.6385
163.424
174.321
175.005
23.7358
165.989
64.3076
158.801
43.0551
20.788
146.02
14.6178
144.273
177.397
-2.84987
200.432
156.567
-6.44747
199.987
4.6483
187.064
177.214
129.495
135.51
-6.80697
174.717
28.2533
180.658
-23.2508
38.875
192.55
187.67
160.978
181.225
175.932
-21.4017
187.88
194.211
-1.87995
195.035
-15.3634
26.9756
-24.8067
16.0875
152.824
87.564
46.7409
49.0785
-5.84103
-26.0072
171.254
-6.91528
198.407
187.693
173.582
174.181
163.749
17.9803
180.709
180.053
-23.7648
129.331
144.153
196.793
146.265
129.991
160.791
-11.225
58.3879
104.693
98.2589
186.437
-17.3077
150.402
158.116
-5.59877
68.8703
171.245
180.943
-20.7675
-6.00433
-3.40174
165.967
179.679
144.531
180.605
-8.85138
47.2362
161.979
-4.73079
184.244
-10.812
1.49883
108.701
180.387
137.291
2.35137
158.069
-6.75981
89.6154
-21.3507
8.10206
97.6323
110.878
179.189
77.6957
146.143
182.48
89.6429
152.222
98.2243
-22.8692
-22.0503
181.876
141.195
-11.0437
43.5943
157.899
-8.41272
125.795
144.31
-12.2682
3.11703
80.2725
179.196
157.239
202.977
200.525
138.937
43.1419
174.551
189.884
-16.7457
191.765
136.405
18.4066
8.87383
175.553
-26.2245
131.245
17.1183
30.1209
186.914
-12.639
182.851
195.447
185.894
-23.2718
377.459
82.3188
-12.1778
83.6132
180.969
14.3039
14.6482
180.291
9.01325
92.869
25.4281
169.546
98.1032
86.7437
159.623
1.14317
31.8222
76.4452
147.147
33.7275
181.945
-25.2803
164.343
175.287
138.118
153.598
160.327
-5.75165
183.363
197.716
5.89436
41.5766
25.0471
203.581
-18.6616
-23.4873
69.4796
-1.887
206.749
171.745
-11.6305
34.5857
147.378
3.05487
89.97
203.463
168.199
174.871
120.654
122.03
165.381
157.781
78.8978
180.87
196.576
-8.7678
51.3914
69.461
179.145
-4.74116
95.5834
91.3389
143.704
98.2304
47.7292
173.098
170.024
128.129
161.411
39.7668
181.827
189.465
73.3549
52.83
200.249
201.7
94.1175
33.8259
51.8072
164.997
178.314
81.9629
-21.8544
173.637
-6.33202
56.097
123.784
185.11
125.067
-30.8921
182.439
7.80895
87.9922
145.43
-11.3449
143.262
102.889
130.612
192.354
176.769
181.659
167.347
192.427
89.6817
188.452
186.736
190.816
179.249
181.459
159.409
169.707
-6.29822
339.198
186.446
97.0886
148.698
187.33
116.63
-6.13101
35.1769
42.0322
179.426
166.191
103.345
145.189
93.9609
97.4175
-23.8926
181.785
-34.7543
173.648
96.1895
115.414
56.8163
133.414
-10.2426
190.008
149.931
129.498
166.504
-3.01879
-7.48922
95.7651
162.886
-4.44114
89.0509
8.82302
-23.8484
4.667
173.21
228.699
148.533
40.9786
126.87
-6.89104
95.9691
-23.5979
134.832
78.7531
156.538
166.947
172.931
195.099
200.48
69.1141
156.917
163.435
44.3352
14.6596
167.305
188.415
149.737
75.0794
113.304
172.968
143.268
163.993
181.19
52.4823
181.224
1.64447
-9.97274
266.601
183.377
181.784
-27.6054
139.87
177.101
-9.13878
123.397
101.304
10.0133
2.7302
145.849
-27.0233
64.0735
109.037
-1.39565
242.826
-21.7476
147.485
198.189
-4.23663
-20.4271
185.541
-31.7473
130.848
18.5439
168.188
1.82476
-2.21404
180.321
113.061
182.668
-2.93315
-9.08729
-12.1316
117.408
91.9341
66.1674
182.776
-1.58234
185.036
187.892
-17.0481
167.527
-28.7772
188.761
168.357
-20.1367
32.664
154.226
12.7158
48.2406
181.297
197.912
-9.89241
99.3877
-9.40105
156.199
165.65
14.9287
136.013
232.016
87.6168
202.534
-6.10153
76.7237
-26.7613
170.094
197.548
134.879
21.2682
192.822
2.177
186.531
184.628
36.754
152.22
88.1503
62.6016
261.925
129.195
155.287
145.915
185.865
41.0523
149.637
-5.89961
-14.5946
234.652
181.243
-29.0509
181.577
180.555
67.2316
110.782
54.0035
181.281
-6.16599
2.50617
145.857
12.3767
99.8967
-11.0378
185.079
177.86
-20.7625
183.263
172.527
89.7755
189.498
-7.94186
148.888
156.412
-15.749
-6.01934
-12.8807
96.2764
187.224
148.318
16.2652
435.816
199.895
3.78903
134.381
50.3681
26.3957
-21.957
206.802
142.765
36.392
165.644
0.94447
181.255
64.8959
161.644
-16.5632
314.181
40.0651
207.61
176.732
148.949
182.012
81.5663
109.001
173.361
102.41
-7.46113
123.452
68.3843
188.498
132.592
108.407
181.721
43.1636
174.731
182.277
74.7322
-9.40211
194.787
-1.09308
9.15219
86.0636
184.186
86.742
113.098
8.34992
-25.5304
174.49
125.043
-15.932
193.618
14.1666
135.151
148.769
205.24
-33.5378
175.267
133.301
1.68376
402.113
0.0559415
177.232
26.8314
-9.59432
-3.25959
181.504
177.938
178.501
160.956
-17.2604
-0.425658
143.425
-6.11819
178.675
195.689
18.7138
179.552
111.719
105.99
4.46062
31.2859
89.1396
119.368
150.488
-7.08684
129.17
188.671
176.803
178.189
172.54
238.382
111.915
101.22
143.441
187.103
181.663
191.526
-29.7226
105.822
196.08
37.6799
176.635
-7.47443
203.313
200.511
86.0946
123.89
24.2923
138.73
149.573
88.0805
-3.17532
145.914
14.4713
183.883
65.4712
77.4496
210.684
123.208
145.768
-2.62657
-8.62253
-4.56383
182.468
-5.1343
-7.40404
194.495
225.382
199.009
-10.9771
89.1746
56.7286
110.405
106.227
142.068
188.398
85.0428
173.822
-15.0259
83.9217
126.581
167.928
111.045
34.359
97.8489
72.3881
100.601
152.745
104.851
-2.7344
169.142
-24.0786
65.8722
-4.92112
-24.6546
-22.9147
37.7214
24.3932
183.66
181.715
123.756
-21.8635
2.11981
-2.22562
108.891
128.065
181.523
92.5329
27.2209
-1.15215
171.978
35.7127
0.922178
192.609
191.798
148.043
111.026
30.9044
170.557
88.2755
-5.11729
145.773
120.954
87.4667
162.78
-23.9113
185.614
34.8307
-20.8017
173.658
95.3015
180.761
182.003
196.454
131.251
146.172
169.563
167.424
166.247
-6.48406
129.171
-25.5856
92.8138
107.669
115.178
189.105
-0.667149
130.146
8.96294
-19.4159
4.74437
156.301
8.91897
186.566
109.92
23.3262
280.03
0.331404
197.512
-2.94412
157.49
182.364
181.115
178.481
0.751487
-3.18094
-12.8186
-7.86504
301.166
145.531
13.6165
154.006
-6.70711
170.049
155.972
121.747
150.921
178.951
15.1446
207.233
162.89
171.351
-1.84565
21.8674
46.7714
181.395
3.47129
84.5457
125.446
172.726
39.1341
-2.63135
40.6251
68.9822
199.382
186.198
122.459
187.171
-10.7969
174.147
197.19
116.409
67.2842
22.3809
-31.967
93.1738
145.059
18.7628
208.931
108.372
-3.77535
-21.4578
-9.40386
-27.6134
191.826
44.7642
146.289
180.379
61.249
180.428
151.652
173.713
-14.1199
181.137
33.5098
193.333
10.8783
125.142
64.3484
202.684
104.472
64.17
-10.1883
160.089
-10.2878
50.2398
146.178
121.455
132.167
184.266
201.63
156.081
157.377
268.653
4.44706
231.6
115.415
-25.5755
134.306
144.159
-13.187
31.2264
-36.0483
-5.00414
28.9187
180.895
179.325
236.202
41.8727
-18.4648
37.022
-12.0891
140.989
111.236
191.846
32.7363
182.978
16.8255
190.516
161.344
183.613
189.105
200.162
-29.3392
146.383
180.377
116.331
0.222296
194.307
59.5966
193.52
149.811
135.588
-12.5056
138.92
41.9308
177.4
149.8
151.594
162.78
178.228
-15.5932
151.017
180.183
172.119
181.62
140.675
176.707
23.6649
-24.1943
102.778
-0.741551
-3.39206
213.709
186.094
286.417
-7.36454
-15.4229
178.932
170.141
153.294
201.5
182.573
-30.5658
182.161
186.139
-4.84787
121.319
136.473
-17.8886
-11.7638
180.461
151.915
162.992
176.042
-17.7557
200.162
137.536
164.791
141.062
-6.33129
155.917
183.879
88.5682
165.963
-17.3339
216.737
-9.09931
181.079
183.465
152.278
-18.5224
96.8762
166.883
183.472
154.171
51.7002
187.723
-12.2524
112.562
83.5109
202.812
-8.33632
-26.6189
174.996
303.557
153.836
86.5874
-29.0532
-12.9423
194.214
59.7505
11.5835
197.218
90.3534
161.579
-4.16914
31.1892
-8.55309
172.723
-24.47
4.72577
191.044
50.842
-25.0758
29.5094
105.178
162.761
121.125
149.757
193.644
181.902
200.769
206.964
159.874
13.7051
394.699
130.68
183.055
151.609
-33.6127
145.943
189.875
33.2944
136.084
164.045
187.771
24.5326
100.52
82.1066
31.976
-19.1447
60.7588
-13.5703
116.665
-2.63504
180.855
200.54
-27.6575
196.47
13.1202
11.4322
165.185
39.9092
180.061
24.5111
184.958
-7.30592
115.039
88.1531
152.224
-10.2205
219.649
-25.518
54.5866
172.153
191.556
-25.4779
17.3485
182.683
191.98
135.185
120.521
-5.85687
-22.9223
150.011
0.442695
168.142
185.946
78.796
-5.04954
146.934
-8.81981
174.535
-22.5622
120.332
203.639
-14.69
177.85
-14.8699
145.476
99.6917
-21.7371
194.789
18.1938
138.907
-22.8271
162.382
185.938
227.813
153.746
175.151
-23.353
180.077
141.354
59.1171
205.786
169.162
172.286
19.9736
181.27
203.827
207.975
144.334
180.672
77.8632
200.786
198.579
8.8451
198.069
-8.3714
21.0741
167.569
180.366
-9.80836
59.1796
143.424
126.798
149.305
95.7001
175.493
202.706
-10.8427
-8.94591
94.6738
93.3801
175.047
-12.8395
32.5327
181.905
112.143
177.851
181.651
92.4895
197.871
-27.0532
169.649
22.6587
-10.8083
71.51
-3.32698
129.812
210.012
180.697
-2.85858
164.369
-3.85803
-25.3292
38.2465
127.159
209.034
196.6
52.6824
105.433
-3.18231
192.549
103.574
43.7424
-20.2235
-18.6203
-29.1429
-24.4279
-29.214
0.667421
-28.5638
7.26661
109.151
15.4612
-5.05806
-25.8702
162.721
41.7709
-10.314
-9.12687
178.576
93.0622
163.691
133.708
117.784
-27.8617
-28.5827
199.672
117.329
150.638
186.126
221.279
9.67106
-10.0326
-12.5695
166.019
-4.35699
24.0083
173.394
133.699
-12.0833
11.7011
171.176
-1.80095
176.733
-5.988
168.913
181.983
88.4337
-7.46795
187.444
111.411
-6.91478
61.0286
0.15736
-8.13541
167.529
9.37116
182.202
181.091
197.4
-2.92492
152.027
-9.63549
67.7253
197.707
224.108
-3.77166
84.2162
159.965
222.455
98.5144
-15.9683
140.58
185.725
198.81
177.87
47.64
-20.2901
209.028
127.44
185.69
17.1466
154.263
79.1925
-18.933
-29.9383
23.4846
-0.794261
-8.46616
125.629
181.153
7.00336
155.132
106.822
-6.80462
70.1188
172.905
172.791
-5.87445
-14.9719
151.274
127.188
131.088
143.95
128.584
7.06794
-22.281
212.191
94.7154
177.18
88.1498
157.504
191.18
139.085
-4.6041
181.383
148.381
-21.5402
40.9457
181.196
96.9592
42.6659
181.451
100.051
136.151
142.04
181.599
99.4789
175.622
201.488
181.408
-0.0992801
59.347
21.8959
-17.0304
2.98053
61.5808
45.5857
8.53846
87.4498
126.007
-6.38812
-24.5132
-19.5624
117.859
60.2513
181.583
180.435
198.271
80.6864
173.18
141.893
-19.155
91.5428
-14.1883
188.307
186.834
-21.3534
17.0926
202.896
-4.35923
-12.2005
106.3
190.287
149.969
182.325
174.604
84.4857
241.147
16.1412
173.083
92.2837
92.1882
99.9541
180.309
117.83
-11.8286
-3.08484
207.19
179.959
-20.3597
-17.2524
52.1688
173.504
-7.092
99.307
11.7912
182.102
134.314
101.146
-15.2541
144.088
-13.9443
172.22
144.218
183.219
183.425
146.675
182.656
-18.7515
196.886
25.8086
113.064
178.866
91.7206
242.914
143.024
-25.8251
142.127
46.8589
180.15
-0.632951
140.123
184.881
181.496
-29.1579
182.89
43.5431
-4.15483
180.07
-3.52431
181.853
137.684
172.672
91.6882
169.966
199.362
104.353
3.41215
13.0727
94.8693
195.624
181.053
3.10393
147.943
-16.2252
83.8728
127.589
150.208
193.081
-9.72419
56.2676
-21.2215
103.677
2.0141
-0.93821
-19.9355
102.19
180.877
137.609
12.7803
161.114
4.596
207.325
-28.538
-14.1703
172.966
134.733
2.47258
181.505
101.226
-25.6884
196.563
110.229
-4.81276
-7.27195
144.784
154.392
143.856
174.364
63.353
150.901
-3.29237
87.0742
101.926
197.624
-22.648
-22.4257
31.4559
88.9903
188.108
109.197
181.435
149.182
183.861
-3.38885
182.4
135.039
372.133
13.9149
89.6945
78.56
-23.3754
-9.60846
137.166
181.747
-7.83282
181.522
-24.995
188.177
148.829
153.321
202.922
-10.1016
121.764
181.998
-3.87986
181.131
146.062
-10.6908
181.154
-4.81315
121.669
168.621
-23.049
173.486
-8.06283
148.59
-24.2271
48.4741
-18.5092
157.063
101.182
84.1794
-27.667
124.317
109.987
-25.9052
195.545
149.919
-1.9244
176.825
-26.2001
-7.25425
136.622
24.8038
216.353
178.681
50.3254
-21.3497
162.744
-18.9765
170.401
158.818
-2.36183
110.161
181.349
185.084
30.6302
190.006
-12.939
-7.47556
128.689
84.8226
178.869
-14.7264
-13.4524
172.245
168.428
59.141
180.776
16.7887
192.951
-6.53336
20.9801
180.471
3.83403
12.6022
-29.9205
149.717
118.51
203.208
13.7737
172.869
151.771
161.164
86.1875
183.304
-9.44313
153.913
0.644321
-13.6124
174.834
171.195
156.557
58.031
-24.3426
147.056
195.888
-27.4771
182.854
137.379
175.368
-7.23662
210.733
-31.8594
210.293
-27.1061
-15.6849
-19.2359
58.0403
-28.8186
207.619
-15.2273
16.0978
61.9102
163.896
1.83531
49.2412
-24.0224
223.635
181.285
100.894
147.989
180.625
-17.5895
-20.7017
176.308
149.897
-17.4503
156.983
5.34425
114.374
189.234
-17.3731
178.253
82.0714
166.547
107.74
12.4798
143.53
-25.3769
208.877
28.89
231.838
139.622
155.68
187.197
137.99
14.1172
56.1911
59.9532
95.3155
51.8684
182.006
93.1762
185.875
168.735
200.992
146.1
181.97
72.4396
85.3626
-12.5073
193.472
401.017
41.9173
130.211
144.794
187.748
144.846
149.613
182.037
102.476
165.083
-9.60226
183.105
126.25
-3.77798
155.272
187.249
203.688
1.41689
-5.2649
118.651
81.7803
42.0499
-22.9663
148.176
189.872
214.535
66.0122
84.2
128.788
-9.69394
95.6272
65.8443
79.9669
92.4237
60.5041
46.3147
156.064
150.153
188.456
113.727
-9.32795
22.7388
6.77078
190.974
169.821
-6.29467
175.972
-0.277405
-9.79078
175.136
30.3478
-8.80869
156.795
279.187
172.48
-33.842
198.324
143.739
164.284
38.7495
112.816
131.484
2.99919
181.287
-25.4094
132.203
22.1969
16.8481
142.337
171.246
-9.2877
158.706
95.4574
20.757
92.8495
160.121
-4.56162
-13.5143
26.7542
-18.9482
144.797
-2.43988
-9.83378
157.854
130.214
181.155
191.977
116.25
-24.2676
66.6716
-4.38486
161.908
120.343
-1.69898
119.866
-6.31809
84.4111
178.227
-15.6845
139.48
120.834
189.406
-23.6311
-21.9146
0.376161
52.3496
188.46
42.8385
175.614
176.658
126.764
-14.9861
160.123
-26.1624
195.33
124.532
36.1213
188.789
-17.2828
-21.1271
182.295
144.868
154.599
176.395
94.5756
88.4269
84.328
176.34
-18.2466
215.84
81.149
-33.4982
182.662
187.69
185.082
153.212
23.3766
164.731
170.488
245.621
-5.60824
9.4038
-7.85983
88.098
184.541
-20.8862
158.051
-22.234
110.234
-10.8577
168.036
193.461
181.14
4.6016
25.137
189.805
149.099
179.657
121.521
-25.9115
63.0628
171.552
15.8034
194.081
-7.9391
157.266
-15.1332
-6.55501
188.716
77.2725
109.497
49.0899
49.9273
2.00469
14.5281
173.121
5.67908
172.95
139.477
155.077
50.4549
-8.95266
100.843
-22.9456
-11.636
173.082
129.635
200.342
204.926
192.505
122.856
-11.2383
169.866
-4.04451
-12.8017
-23.1253
-23.3919
-7.61333
-6.59401
154.198
-12.4458
160.318
-18.8173
183.559
175.09
99.3077
37.2066
186.804
191.274
96.4671
110.557
155.903
106.06
43.7477
166.468
94.5845
-27.2444
239.143
-7.26131
191.423
192.965
28.4299
27.1349
192.171
76.2819
24.5982
180.486
-21.3458
-17.3532
35.4559
80.4605
182.297
99.5568
32.9887
164.081
21.421
119.376
180.92
193.135
172.675
146.444
-27.0308
168.608
28.2685
57.4528
181.674
61.7095
-12.9858
-24.6036
192.995
183.065
94.1972
-10.1659
139.252
204.471
65.8483
1.92724
128.821
202.435
-29.374
115.288
-30.8874
136.128
-23.4529
223.304
128.649
-18.3248
164.851
-9.08415
94.875
52.4989
121.5
-28.656
57.2143
109.763
106.781
-9.29773
132.968
-28.9888
152.847
177.189
162.448
-14.6784
224.504
-30.2203
39.9358
193.088
188.273
48.1068
76.8185
39.1094
84.1856
-18.7045
89.4714
180.508
254.17
40.4062
-26.4503
174.892
-16.9772
-30.9956
140.21
160.66
92.8441
3.44532
268.248
121.296
112.752
109.912
-23.6868
135.192
5.23983
181.486
-1.52268
20.9012
28.5453
230.232
170.15
-16.0246
21.3858
154.272
-10.244
-12.0688
159.474
50.731
67.5429
198.787
174.532
-22.41
194.828
174.626
-21.844
187.027
-10.7017
147.04
55.167
-19.5631
71.6543
111.308
121.522
2.94214
136.443
181.983
182.73
-7.80405
157.919
163.395
176.083
-15.4744
37.1766
-22.5691
-14.0651
31.2866
-24.3638
13.6623
216.123
-12.1719
43.2394
152.063
161.653
174.626
-29.9755
161.634
-5.81553
-23.0606
37.4007
0.630098
-13.1719
117.004
129.333
139.339
120.22
88.7852
209.159
7.81921
138.182
110.365
-5.38532
196.047
150.972
174.891
106.316
182.048
8.75425
-9.08473
177.234
105.388
80.2084
150.334
136.029
150.531
166.543
187.612
-16.8606
192.933
97.6415
104.227
0.662996
-29.5953
5.57855
131.964
182.546
-3.42277
135.095
169.212
68.9918
44.8989
181.246
7.82652
193.816
-12.6236
-10.4317
192.052
152.961
173.007
199.775
191.988
16.8186
-18.1924
221.058
183.325
14.1712
2.36069
125.744
-28.7061
188.215
-21.4691
179.567
188.092
173.312
168.374
80.0881
-24.3702
155.736
187.976
182.51
18.5022
174.156
147.808
180.352
178.023
183.819
70.6849
110.584
252.159
104.53
167.95
17.3645
181.269
156.105
168.565
-9.15237
99.2421
-4.56002
173.007
184.465
-9.1769
129.61
-20.0113
141.649
119.802
-21.9706
128.223
12.4269
-24.8669
3.90752
163.296
191.219
195.535
-13.0045
8.78509
57.7548
67.7134
-29.2359
153.777
179.653
102.936
191.261
10.0275
87.7931
179.17
23.6886
82.1495
-5.45545
177.844
46.5809
195.588
78.0344
152.46
188.588
146.431
121.816
172.373
84.1095
158.063
182.088
197.062
157.31
187.29
69.84
154.557
0.159064
209.313
179.44
73.1176
88.5979
210.296
166.74
158.834
144.573
90.0452
167.657
172.556
-2.1582
8.05274
190.364
140.441
103.838
167.75
146.014
-29.1963
-3.50628
-19.3402
157.719
316.607
165.199
156.008
39.0654
4.78458
178.675
194.168
43.2825
120.103
163.653
179.586
199.694
173.239
110.791
-0.222285
20.1026
47.9181
107.669
101.086
93.7409
-29.3892
-1.37095
7.24079
10.0805
198.276
191.344
181.172
-11.0542
48.7704
-15.5481
-2.38163
-18.7903
-21.4062
-32.2622
-31.5903
177.654
160.716
-29.2754
163.433
103.424
64.5879
1.29331
-0.0339131