/*--------------------------------*- C++ -*----------------------------------*\
| =========                 |                                                 |
| \\      /  F ield         | OpenFOAM: The Open Source CFD Toolbox           |
|  \\    /   O peration     | Version:  4.0                                   |
|   \\  /    A nd           | Web:      www.OpenFOAM.org                      |
|    \\/     M anipulation  |                                                 |
\*---------------------------------------------------------------------------*/
FoamFile
{
    version     2.0;
    format      ascii;
    class       surfaceScalarField;
    location    "200";
    object      phi;
}
// * * * * * * * * * * * * * * * * * * * * * * * * * * * * * * * * * * * * * //

dimensions      [0 3 -1 0 0 0 0];

internalField   nonuniform List<scalar> 
21699
(
-0.022501
-0.00246756
0.0249686
0.0141525
0.00151079
-0.0156633
-0.0355713
0.0130703
0.0165257
-0.00237319
-0.0264238
0.00420325
0.0222206
0.0124901
-0.0142634
0.00177328
-0.0266972
0.017976
0.00872117
0.00317997
0.00394899
-0.00712896
-0.00259392
0.00200228
0.000591643
0.00109697
-0.00693136
0.00583439
0.044319
-0.00149747
-0.0428216
-0.0129024
0.0128968
5.59754e-06
0.0125875
-0.0269904
0.0144029
-0.00404886
0.00447905
-0.000430188
-0.00778831
0.0228827
-0.0150944
-0.0376698
0.00651953
0.0311502
0.08431
-0.0772114
-0.00709855
0.0396068
-0.0190995
-0.0205073
0.0113935
-0.0191818
-7.5536e-05
-0.000436606
0.000512142
0.0221019
-0.0100929
-0.012009
0.00232238
-0.000774607
-0.00154778
0.024427
0.0211283
-0.0455553
0.00833484
0.0137671
0.0601347
-0.0158157
-0.0587399
0.040758
0.0179819
0.000619097
0.049452
-0.0500711
0.0307933
0.0535167
-0.00990864
-0.00299378
-0.00079625
0.0017596
-0.000963355
0.00106438
-0.00100761
-5.67752e-05
-0.065339
0.0274117
0.0379272
-0.00670443
-0.0197194
0.0202633
-0.0149988
-0.00526444
-0.0245492
-0.0227888
0.047338
-0.0323435
0.0369797
-0.00463618
0.0538099
-0.0293829
-0.00371697
0.00689694
0.0398393
-0.0303545
-0.00948479
0.0010333
-0.00295918
0.00192588
0.0508998
-0.0502807
0.000473175
-0.00126943
0.00910821
0.0390328
-0.048141
0.00301217
9.27015e-05
-0.00310487
-0.000777214
0.0132673
0.0160571
-0.00371978
-0.0123373
-0.0478839
-0.010856
0.000838811
-0.00367423
0.00283542
0.00097562
-0.00134255
0.000366926
0.00104375
0.00127864
-0.059425
-0.00591397
0.00243733
-0.00153809
-0.000899243
-0.0008113
-8.11358e-05
0.000892436
-0.00415073
-0.0281928
2.84011e-05
0.000947219
0.0169316
0.0229077
0.0152226
-0.0102789
-0.00494366
-0.016908
-0.00978919
-0.0394038
-0.00333969
0.0427435
0.00197959
-0.000412288
-0.0015673
-0.00800767
0.0465238
-0.0385161
-0.0225367
0.0102505
0.0122862
0.03371
-0.0284123
-0.00529768
-0.00881167
0.0521451
-0.0430369
0.000549143
0.0210767
-0.0216259
-0.0177251
0.0303125
8.26402e-05
0.00189695
0.0012751
0.000199079
-0.00147418
-0.0131661
-0.013376
0.0265421
0.00114812
0.000126977
0.0300602
-0.0501777
0.0201175
0.033586
-0.0183454
-0.0152406
-0.00739413
-0.00220825
0.00960238
0.0368509
-0.0687931
0.0319422
0.00287354
0.0221894
-0.025063
0.0368509
0.00179369
-0.0417349
0.00233102
-0.00184833
0.00198335
-0.000135016
-0.0410486
0.00337887
0.012989
-0.0375382
0.00747408
-0.00572518
-0.0017489
0.00374627
-0.00271297
0.00176317
0.00307451
-0.00483768
0.0107134
0.00954991
-0.00965049
0.00954064
0.000109842
0.000793576
0.00164375
0.0236816
-0.00372862
-0.019953
0.0184583
0.0151278
0.0331868
-0.000103076
-0.0330837
0.00148289
-0.00120914
-0.000273755
0.00817635
0.00704625
0.0199521
0.0196547
0.0291094
-0.0156737
-0.0134357
-0.000412092
0.000604075
-0.000191983
0.0378907
-0.0157218
-0.0221689
-0.00504692
-0.0522892
0.0573361
-0.0458874
0.0426947
0.00319272
0.00121417
-0.00681042
0.00559624
-0.0489062
0.0635584
-0.0146521
-0.0315958
0.0165339
0.0150619
-0.00908162
-0.0139957
0.0230773
0.0149919
0.00858704
-0.0235789
-0.0626272
0.0381132
0.024514
-0.0201955
0.0275651
-0.00736965
-0.0780937
0.0323511
0.0457426
0.00128182
-0.00212045
0.000838635
-0.0182401
0.0224434
-0.0363918
0.0512957
-0.0149039
-0.0278782
-0.0146549
0.0275839
-0.0332842
0.00570036
-0.0488281
0.0684589
-0.0196307
0.0482961
-0.0361966
-0.0120995
-0.0078908
-0.023705
-0.00376361
-0.00249899
0.00626259
0.0240209
-0.0123413
-0.0116796
-0.00332851
0.0393278
-0.0359993
0.000722455
-0.00115865
0.000436192
0.00396839
-0.000228481
-0.00373991
0.0358845
0.0142492
-0.0501337
0.000168528
-0.0163867
0.0162182
0.0206469
0.0119799
-0.0326268
0.0204102
0.0132998
0.0460152
-0.0280612
-0.017954
-0.0187988
-0.040659
-0.082384
0.0449957
0.0373884
0.00303061
-0.00344928
0.00041867
0.0229503
-0.0407243
0.0177741
-0.0173435
0.00997784
0.00736567
0.0241871
0.0294647
-0.0536518
-0.0169998
0.0116516
0.00534817
0.0134455
-0.0108633
-0.00258221
-0.000593608
-0.0176465
-0.00549819
0.040416
-0.0349178
0.00023424
-0.000524636
0.000290396
-0.0145646
0.0310417
-0.016477
0.0517306
-0.0363482
-0.0153824
0.0210677
-0.0103503
-0.0107174
-0.0424893
-0.0433194
0.0858088
-0.0182754
0.0357137
-0.0174383
0.0493715
-0.00916351
-0.040208
-0.00258931
0.00342812
0.00159063
-0.0264849
0.0248943
-0.0514531
-0.0309309
-0.0285844
0.00533473
0.0232496
0.0329585
0.00104878
-0.0340073
-0.00135766
0.00106283
0.000294837
-0.0279714
0.0230447
0.0049267
-0.0347203
0.0145248
-0.0191346
-0.0319442
0.0510788
0.00387062
0.00213899
-0.00600961
0.0253498
0.0321523
-0.0575022
-0.0170342
0.016257
0.000899012
-0.000136613
-0.000762399
-0.060201
0.0445347
0.0156662
-0.0205145
0.0175685
0.00294608
-0.000955417
-0.000351786
0.0013072
0.0484311
-0.00326734
-0.0451638
0.0173044
-0.103957
0.0866524
0.0381189
-0.0245612
-0.0135577
0.0176752
0.0393054
-0.0569805
0.0344632
-0.0424709
0.00826405
0.0246945
0.0156838
0.0155368
-0.0312206
0.000435497
-0.00101458
0.000579085
-0.0040248
-0.0491308
0.0531556
-0.00036517
0.00337734
0.0300706
-0.0238436
-0.00622698
0.011692
0.0261988
-0.0291528
0.0613694
-0.0322165
-0.00695344
0.00355959
0.00339385
0.00138959
-0.00289534
0.00150575
-0.000166501
-0.000752792
0.000919294
-0.00179486
0.00186149
-6.66246e-05
0.00253042
-0.00151578
-0.00101464
0.0195853
0.0244135
-0.0439988
-0.00138503
0.00037887
0.00100616
0.0121536
-0.03157
0.0194164
-0.0786157
0.0503847
0.028231
-0.0445162
0.0159318
-0.0337447
0.0448626
-0.0111179
-0.0188988
0.00808931
0.0108095
-0.0136418
0.000263173
0.0133786
-0.000944237
0.0124156
-0.0114714
0.000432029
-8.93305e-05
-0.000342699
0.00516507
-0.0034019
0.0653985
-0.0365553
-0.0288432
0.000124822
-0.000838406
0.000713584
0.0246488
-0.0279112
0.0032624
0.000468925
-0.000666481
0.000197555
-0.0732376
0.0426505
0.0305871
-0.00248598
0.00143306
0.00105292
0.0183625
-0.0360876
-0.00170792
-0.000749121
0.00245704
-0.0716201
0.0742345
-0.00261436
0.00138364
-0.000319263
-0.0189923
0.00631934
0.012673
0.000144209
0.00128228
-0.00142649
-0.00140806
5.03954e-05
0.0405547
-0.0443354
0.00378072
0.00961429
-0.0449334
0.0353191
-0.0652038
-0.022968
0.0881718
-0.0537812
0.0346466
0.0472163
-0.0139929
-0.0332234
-0.00301993
0.00100005
0.00201988
-0.0466957
0.0397163
0.00697939
0.0342968
-0.0378828
0.00358601
-0.0231709
0.0648283
-0.0416574
-0.00751119
0.020497
-0.0129858
-0.0522756
0.00202002
0.0502556
-0.046165
0.0018205
0.0443445
0.0144179
0.0323867
-0.0468045
0.0184497
-0.0151724
-0.00327728
0.00794838
0.0346755
-0.0426239
0.0251771
-0.0414322
0.0162551
-0.00942158
-0.0350946
0.00122065
-0.00162003
0.000399383
0.000555637
-7.00638e-05
-0.000485573
-5.82583e-05
-0.00124722
0.00130548
-0.00607182
-0.0187505
0.0248223
0.0370099
-0.0143699
-0.02264
0.0502784
-0.0273281
-0.0462554
-0.0163718
-0.0195575
0.0397056
-0.0201482
0.00261848
-0.0513576
0.0487391
-0.0145522
-0.00798444
2.15704e-05
-0.000819217
0.000797647
0.0699412
-0.0699412
0.00448044
-0.0533086
0.00367595
0.0248418
-0.0285177
0.0241082
0.0174346
-0.0415428
-0.0313614
-0.00517411
0.0365355
-0.0389442
0.00259088
0.0363533
0.044979
-0.0149188
0.00552378
-0.00371137
-0.00181242
0.0223903
-0.0181351
-0.00425525
-0.000675439
-0.000667108
0.0444097
0.00277599
-0.0471857
0.0231767
0.00999539
-0.0331721
0.00810118
0.00350925
-0.0116104
-0.0500695
-0.000363786
0.0504332
-0.0233099
0.0106126
0.0126973
-0.00131836
0.00179154
-0.00974862
9.81327e-05
-0.00647276
0.00270915
-0.0680442
0.0509618
0.0170824
0.0564431
-0.0115345
-0.0449086
0.0873897
-0.0418254
-0.0455644
-0.00651579
0.0167642
-0.0102485
-0.000426863
-0.000981197
-0.0146165
-0.0312709
0.0549217
-0.0453074
-0.0330452
0.0238605
0.00918471
0.00173108
-5.78365e-05
-0.00167324
0.00558708
-0.00366445
-0.00192263
0.0171845
0.0128861
0.0462616
0.0411281
-0.0547163
0.0183245
-0.0672438
0.0581877
0.00905607
-0.0109654
-0.0439258
0.0548912
0.0297391
-0.0281485
0.0560827
0.000360418
-0.012671
0.0389412
-0.0262702
0.0121185
-0.0128386
0.000720118
-0.0556803
0.0772074
-0.0215271
-0.0421656
0.0788259
-0.0366603
0.0122922
-0.004191
0.00126048
-0.000408251
-0.000852233
-0.00360071
0.00481489
0.0787859
-0.0510839
-0.027702
-0.000775892
-0.0318186
0.0325945
-0.00635435
-0.00106211
0.00741646
0.0100801
-0.0122314
0.00215125
-0.0669443
0.0350447
0.0318996
-0.0126106
0.0037386
0.00887204
0.00348538
-0.0018415
-0.00164389
0.00179468
0.00123593
0.104325
-0.0652589
-0.0390659
0.00333781
0.00658556
-0.00992337
-0.0130097
0.0251633
0.0374555
-0.0565686
0.0191132
-0.00110567
-0.032639
-0.016931
0.0226069
-0.00567587
0.0600308
-0.0225753
0.0355764
0.0432095
0.0367809
-0.0216348
-0.0151461
-0.00299499
0.0134998
-0.0105048
0.064983
-0.0492863
-0.0156967
-0.00150574
-0.000525138
0.00203087
0.020538
0.0162429
-0.00452827
-0.0416792
0.0462075
-0.0194008
0.0202903
-0.000889459
0.00291912
0.000331944
-0.00325106
-0.000219853
-0.000299549
0.000519402
0.0507437
-0.0320666
-0.0186771
-0.00266481
-0.000296519
0.00296133
0.052078
-0.0707367
0.0186587
-0.00696734
0.0155376
-0.00857027
0.0229914
-0.0508696
0.0559917
0.0483331
-0.00186723
0.00036149
0.00421134
-0.00478408
0.000572738
-0.00136763
-0.00224282
0.00361045
-0.0338306
0.0616802
-0.0278497
-0.0395401
0.0280106
0.0115296
-0.0097045
-0.00729526
0.0471345
-0.0327166
-0.0206014
0.0183761
0.00222533
0.0535028
-0.0590814
0.00557859
0.055132
-0.0297822
-0.0337059
0.0548563
-0.0211504
-0.0220426
0.0611386
-0.0390959
0.0533056
0.00412197
-0.0574275
1.32678e-05
-0.00114353
0.00113026
0.0171777
-0.00893622
-0.00824153
-0.0751332
0.0458026
0.0293306
0.0326053
-0.0519458
0.0193405
-0.00270892
0.0106807
-0.00797181
0.0661139
-0.0414897
-0.0246242
-0.000494285
8.21932e-05
-0.0102283
0.00847133
0.001757
0.00274495
0.00277883
-0.000116411
-0.000362431
0.000478842
-0.00602129
0.065649
-0.0596277
-0.037154
0.0316515
0.00550246
-0.0262726
-0.0317033
0.0579759
0.000245554
0.00096992
-0.00121547
0.0764123
-0.048582
-0.0278302
-0.00197539
-0.0401743
0.0421497
-0.0168422
0.0701478
0.00312498
-0.00116976
-0.00195522
-0.000309691
3.82941e-06
0.000305862
0.080039
-0.0642818
-0.0157572
-0.0691694
0.0807833
-0.011614
0.00776249
0.0162584
-0.0728461
0.0549736
0.0178725
0.0309253
-0.0730909
-0.0135204
0.0177847
-0.00426421
0.00981424
-0.0126957
0.00288143
-0.00250677
0.00730161
-0.00479483
-0.0358265
-0.0374112
0.00982954
0.0152521
-0.0250816
0.0126359
-0.0588008
0.018192
0.00287569
0.00202431
0.00188889
-0.0039132
0.00322606
-0.0149686
0.0117425
-0.0582804
0.026962
0.0313184
0.00461384
0.0478675
-0.0524813
0.000682465
0.000800425
0.0330481
0.0319349
0.00240488
-0.000814119
-0.00159076
-0.00187165
0.00207073
0.0304915
-0.0717342
0.0412426
-0.0915217
0.0771065
0.0144152
-0.0384126
0.0289068
0.00950583
-0.0290635
0.0480424
-0.0189789
0.0211892
0.0288548
-0.050044
0.0172568
-0.0683121
0.0510553
-0.00535897
0.00140678
0.00395219
-0.0416419
0.0371136
0.00157286
0.000158212
0.0686411
-0.0265519
-0.0420891
-0.0134306
0.0360217
-0.0225911
-0.00140397
0.00134571
-0.0600898
0.0491244
0.033484
-0.0368237
0.0140267
0.0150827
0.00140396
-0.00138239
0.088983
-0.0835121
-0.0054709
-0.0233105
0.0389955
-0.015685
-0.0242363
-0.0438079
0.0045902
0.0200586
-0.00671744
0.0254728
-0.0187554
0.0275123
-0.0125204
-0.0219729
0.0519502
-0.0299773
0.0410826
-0.0112898
-0.0297928
0.00839432
0.00643558
-0.0148299
0.0191127
-0.0412873
0.0221746
0.0319698
0.0160132
-0.0479829
-0.0161262
0.00776896
0.00835719
-0.0281584
-0.00488685
0.00901678
0.0113643
-0.020381
-0.0509753
0.0114464
0.0395289
0.0220153
0.0464436
-0.00484498
-0.0052153
0.0100603
-0.0281114
-0.00745989
0.018981
-0.0536752
0.0346943
-0.00200142
0.000754205
-0.00786187
0.0138215
-0.0147657
-0.0261708
-0.0310592
0.05723
-0.0386763
0.0669683
-0.028292
-0.0652038
-0.0162199
0.0194459
0.0359996
0.0157311
0.0310295
-0.066856
-0.0701954
0.026196
0.0439993
-0.0365451
0.0103457
0.0261994
0.00142302
0.0213649
-0.0227879
-0.000143548
-0.00479346
0.00493701
0.00427524
-0.00192738
-0.00234786
-0.0119049
-0.01411
-0.0030367
0.0171467
0.0488458
-0.0117863
-0.0370596
-0.00637238
0.00321835
0.00315403
-0.0282542
-0.0632674
-0.0270862
0.0523458
-0.0252596
-0.0501155
-0.00687241
0.0569879
-0.0340414
0.0405633
-0.00652188
0.0278994
-0.00725248
0.00107099
-0.00105772
-0.00760423
0.00894728
-0.00134305
0.02238
0.0437339
-0.0357175
0.0390789
-0.00336141
0.0353252
0.01069
0.00153687
-0.0276041
0.0260672
0.00543446
0.0100409
-0.0154754
0.0254651
-0.0641414
0.0372946
-0.00042637
-0.0368682
0.00749574
-0.00736916
-0.000126581
0.0047306
-0.00223284
-0.00249776
0.0143161
-0.0118938
-0.00242227
0.0122562
-0.0291297
0.0168735
-0.000852433
-0.0067518
0.00823312
0.0411384
-0.00751319
0.0123051
-0.00479189
0.0446586
-0.0250732
0.0173375
0.00801622
-0.0253537
0.0582685
-0.0642898
-0.0176893
0.0032181
0.0144712
-0.0481289
0.0420172
0.00611176
-0.0243107
0.019588
0.00472271
-0.000717017
-0.000232603
0.00094962
0.0131032
0.0211936
-0.00944089
0.034618
-0.00488771
0.0301776
-0.0252899
-0.0399655
0.0184098
0.0215557
0.0293522
0.0125004
-0.0418526
0.0197916
-0.038067
-0.0533991
0.0426073
0.0107918
0.00134042
-0.0101876
0.00884716
-0.00199675
0.00189894
9.78155e-05
-0.0129375
0.030275
0.0898472
-0.0460372
-0.0438101
-0.00399408
0.0333463
0.053979
0.0224333
-0.029067
0.00598414
0.0230828
0.0109988
-0.0502981
0.0392993
0.00339441
0.00407967
0.0181022
-0.0340556
0.0159534
0.00201652
0.000513894
-0.00381713
0.012045
-0.00822789
-0.00816495
-0.0108027
-0.0287375
0.0196348
0.00309038
-0.0227252
0.00426822
-0.0162509
0.0119827
0.0117412
-0.00630672
0.0361035
-0.070754
0.0346505
-0.0257462
-0.0142192
0.0448006
0.0205979
0.0318653
0.00625353
-0.0359891
0.0549701
-0.0343438
0.0524871
-0.0181433
0.0231927
0.00048889
0.000304098
-0.000558938
0.00025484
-0.0140432
-0.00535759
-0.00142583
-0.00116809
-0.0540299
0.0541093
-7.93898e-05
-0.00107741
-0.00101032
0.00208773
0.0457348
-0.017164
-0.0285708
-0.00720453
0.00435295
0.00285158
0.0193369
-0.0320079
0.0504202
-0.0316396
-0.0187806
-0.0243389
0.024888
-0.0424834
-0.010521
0.0530044
-0.0433594
0.0350413
0.00831814
0.0058744
-0.00117598
-0.00469842
-0.0757121
0.00508914
0.0706229
-0.0269827
0.0117257
0.015257
0.0567604
0.0330869
0.0594793
-0.0382901
-0.00184766
-0.0202896
0.0221372
-0.0103772
0.0139579
-0.00358075
-0.000658753
-0.001338
-0.0763437
0.0417159
0.0346277
0.000633601
-0.000237454
-0.000396147
-0.00058181
0.000681993
-0.000100183
0.0011439
0.0477019
0.0260124
-0.0137562
0.000797556
-0.000672734
-0.0164392
0.00475034
0.0116888
0.0472544
-0.0445539
-0.0027005
-0.0058183
0.0123441
-0.0065258
-0.0239583
0.00626897
0.00275803
0.00145331
0.0221823
0.0239862
-0.0461685
0.00266343
-0.00671229
-0.000496931
-0.047632
0.000457072
-0.00755348
0.00709641
0.00128862
-0.000453459
-0.000835165
0.00737102
0.0049668
-0.0123378
-0.00407899
0.0113126
-0.00723364
0.0193823
0.0490226
-0.0111123
-0.0379103
-0.000243959
0.00421235
0.0133199
0.0302977
-0.0436176
-0.00306808
0.00937963
-0.0247426
0.015363
0.0658702
-0.0573004
-0.00856979
0.0419776
-0.072461
0.0304835
0.0339495
-0.0327921
-0.00115738
0.0158808
-0.111458
0.0955769
0.0311214
0.0160949
0.00143495
0.0258467
-0.0272817
0.0230282
-0.0364588
0.0579454
-0.0662332
0.00828778
-0.0056252
0.0163386
0.00990438
-0.0157705
0.00586612
-0.0276394
0.0409593
-0.068054
0.0588298
0.0092242
-0.0410311
-0.0209087
0.0619398
-0.00888622
0.0191782
-0.010292
-0.0409512
0.0269583
0.000862166
-0.000855217
-6.94855e-06
-0.00245981
-0.0148837
0.0652038
0.0308638
-0.0960677
-0.0539053
0.0176288
0.0362765
0.0694158
-0.018516
0.00412355
-0.00209924
-0.0146358
0.0294277
-0.0147919
0.00195747
0.0353371
0.0106784
0.0313388
-0.0303499
-0.019362
0.0552465
0.00653913
-0.00528506
-0.00125407
0.0131488
-0.00229839
-0.0108504
0.0338263
0.0136626
-0.0474889
0.00941418
-0.0210758
0.0116616
-0.000160015
0.00062894
-0.00224803
0.00316705
-0.000919016
0.0233604
-0.0233604
0.0756745
-0.061483
-0.0141915
0.0703065
0.00835853
-0.078665
-4.27394e-05
0.00126339
-0.00185963
0.00404536
-0.00218573
-0.0221699
-0.0466232
0.0471918
-0.0453713
-2.92244e-05
-0.00181911
-0.0239333
-0.0247834
0.0487167
0.0219553
-0.0239621
0.00200676
-0.000328032
-0.0033462
-0.0188505
0.010603
0.00824751
0.0263013
0.0107086
0.00796695
-0.0420084
0.0736957
0.00634324
-0.0159127
0.00504613
0.0108666
-0.0204726
0.0624502
0.000817331
5.49477e-05
-0.000872278
-0.0533474
0.00660683
0.0467406
-0.0787911
0.0145093
0.0246541
0.0145025
-0.0391566
-0.0042933
0.000505907
0.00378739
-0.0192828
-0.00868856
0.0131812
0.0052685
0.0549971
-0.03081
-0.0346119
0.0556904
-0.0210785
0.0228998
-0.0331138
0.010214
-0.0111553
-0.0411203
-0.00736127
-0.00855146
0.0285198
0.0374802
-0.0014939
-0.000992079
0.0378817
0.00950001
-0.0473817
0.0434821
-0.045353
0.00187089
0.0763862
-0.0549821
-0.0214041
-0.00236773
0.0119165
-0.00954874
-0.0152981
0.0334003
0.017048
-0.033723
0.0166751
0.056894
-0.000504356
-0.0563897
-0.0040663
0.0561443
-0.0379927
-0.000419881
0.0244891
-0.0416767
0.0171877
-0.0127208
0.00620497
-0.0388233
0.0311083
0.00771501
-0.0353743
0.0463732
0.0450751
-0.0112488
0.00673626
0.0764314
-0.0831677
-0.0549153
0.00600908
0.00234264
-0.00973677
-0.00868314
-0.0422922
0.0136375
0.00876052
-0.022398
0.00553739
-0.0228321
0.0172947
-0.00171368
-0.0149107
0.0166244
-0.0563003
-0.0124082
0.0687085
0.02101
0.00507654
-0.0260865
-0.00229888
0.0438881
-0.0415893
-0.0245926
-0.0540232
-0.0405781
0.045192
0.0221774
0.0125399
-0.0347173
0.0115061
-0.00413503
0.00171527
-0.000962694
-0.000752575
0.00159249
-0.000121052
-0.00147143
-0.0400352
0.0280068
0.0120284
-0.00132037
-0.00297293
0.0247661
0.0287367
-0.00936452
0.0153711
-0.00600659
0.00842154
-0.0242785
0.0158569
-0.00117827
-0.0405009
0.0127273
-0.0409542
0.0282269
0.03613
0.0187917
0.0182411
-0.00106337
0.00162502
-0.00093276
-0.000692259
0.022049
-0.0265115
0.00446252
0.0428931
-0.0238967
-0.0189964
-0.0459797
0.0623619
-0.0163822
-0.026656
0.0154062
0.0112498
0.016323
-0.00946789
-0.00685513
-0.0203639
-0.0398757
0.0602396
-0.0180137
0.00709227
0.0109215
-0.00305852
-0.00117622
0.00423474
-0.0422566
0.039789
3.94201e-05
-0.00144339
-0.0244354
0.0264169
-0.00198152
-0.0449526
0.0142378
0.0307148
0.0536965
-0.00706361
-0.0466329
-0.00213298
-0.0147029
0.0168359
0.00665017
0.024409
0.0213258
0.0995707
-0.104362
0.0047916
-0.000420405
0.000654645
0.0357006
-0.0181556
-0.0175449
0.0450724
-0.00108833
-0.0439841
0.00211895
0.00999951
0.0377476
-0.0102939
-0.0274537
0.0217929
0.000180975
-0.0219739
-0.00525913
-0.0136397
0.0368472
-0.00477316
0.0373785
0.00184485
-0.000252369
0.0278114
0.0478631
2.1763e-05
-0.000603573
-0.0355692
0.0716727
0.0746461
-0.0303568
-0.0442893
-0.000261006
0.000696503
-0.00692463
0.0553558
-0.00917941
0.0313568
0.0302641
-0.0145803
-0.0628194
0.00840239
0.054417
-0.0441781
0.0429998
0.00785003
0.0658457
-0.0233244
-0.0033316
-0.000531833
-0.00425999
0.00479183
0.00565851
-0.0296956
0.0240371
-0.0299032
0.0142507
0.0156525
-0.00124089
0.00202344
-0.000782557
0.00137114
0.00969875
-0.0110699
0.0100801
-0.0406336
-0.00163173
0.0422653
0.00174134
-0.000894429
-0.000846914
0.000939346
-0.0145811
0.045594
-0.0240385
-0.0215555
0.0200909
-0.000757717
-0.0193332
-0.000110843
-0.0087648
0.0371972
-0.0284324
-0.00301031
-0.059809
0.0512205
-0.020191
0.0529207
-6.31981e-05
-0.0528575
-0.0189213
-0.0468309
0.0657522
0.000194743
-0.00168864
0.00169447
-3.58975e-05
-0.00165858
-0.0344315
-0.00261649
0.037048
-0.00658074
0.00178403
0.00479672
0.020143
-0.0138038
-0.00633915
-0.0342573
-0.0106954
-0.00626635
-0.00260292
0.00886927
0.049779
-0.0144538
0.004977
0.0226069
-0.0664643
0.0796209
-0.0131566
-0.0385524
0.0352239
0.000145096
0.00767553
0.00577001
-0.0110001
-0.0016105
-0.000472714
-0.000912321
-0.0311279
0.030352
-0.0462582
0.0171913
0.000406602
-0.000223238
-0.000183364
-0.0187067
0.0187091
-2.394e-06
-0.0155432
0.00826521
0.00727794
-0.0327
0.00938943
0.00260752
-0.00392698
0.00131946
0.000402383
-0.000405192
2.80891e-06
0.0488947
0.00169131
-0.050586
0.00220873
-0.00174688
-0.000461851
-0.00028137
-0.00450271
-0.0701954
0.048117
-0.00321057
-0.0449064
0.0698306
-0.057516
-0.0123146
-0.0563314
-0.0134258
0.0697572
-0.0314749
0.00703954
-0.000981975
0.000485143
0.000496832
0.000190701
-0.011945
0.0117543
0.0396371
0.00543529
0.00139971
-0.00243533
0.00103562
-0.0226411
0.0125036
0.0101375
0.0219738
-0.000104684
-0.0218691
0.0104012
-0.00810208
-0.00229915
0.0119503
0.0306923
-0.0426426
-0.00570119
-0.00452715
0.0441128
0.00796117
-0.052074
0.0113164
-0.0408463
0.0295299
-0.0251783
-0.0505338
-0.00987157
0.00290423
0.0466597
0.0196511
0.0155866
-0.0352378
0.0333883
0.0365529
-0.00859085
0.00904792
0.0497967
-0.00420276
0.029393
-0.00975815
-0.0138302
0.00446568
0.00220706
0.00896715
-0.0111742
-0.0105083
-0.0517801
0.0622884
-0.0666251
0.0666251
-0.00776013
0.0438902
-0.00723745
0.0199601
-0.0127227
0.0211694
-0.0308751
0.00970566
0.00695169
0.042845
-0.00716957
0.00698213
0.000187438
0.03924
-0.0160633
0.0386864
-0.0140323
0.0244381
-0.0582687
0.00144793
-0.037993
-0.000772628
0.00216222
-0.0260754
0.0101823
0.0158931
0.00069722
0.00100245
-0.00169967
0.0204207
0.0173269
-0.0681822
-0.00991152
0.0208153
0.00595587
-0.0267711
-0.0357646
0.0225985
0.001142
0.00234338
-6.23359e-05
0.000879666
0.0435615
-0.00753983
0.0149826
-0.0183617
0.00337912
-0.00156826
0.00285007
-0.0435618
0.0282638
0.0382372
0.00318803
-0.0414252
-0.00409084
-0.0250388
0.0338862
-0.0302103
0.0115644
0.0413563
-0.0247166
0.0124816
0.012235
9.57696e-05
-0.000839956
0.000744187
-0.0165683
0.0148546
0.0298223
-0.0116816
-0.0181408
-0.0104307
0.0485439
0.0553808
-0.038124
-0.0195793
-0.0341479
0.0537271
0.000238573
-0.00122256
0.000983991
0.00316874
0.0136438
-0.0168125
-0.0360768
0.0467186
-0.0106418
0.0151917
-0.0171499
0.00195823
0.0153661
0.0335287
0.0079986
0.0120923
0.00189101
0.00404314
-0.00593415
-0.0177024
0.0368151
0.0369659
-0.0160975
-0.0208685
-0.00621358
-0.0629558
-0.000879842
0.000817506
0.0234922
-0.00322767
-0.0119447
-0.0669741
0.0512659
0.0157082
0.00775439
-0.0115715
-0.0584219
0.0264171
0.0320048
-0.0716201
-0.0128795
0.0222591
0.0880963
-0.0515236
-0.0365728
-0.0321913
-0.0441524
-0.0323388
0.0253718
0.00696693
-0.00599105
0.0143854
0.00548088
-0.00133086
-0.00415002
-0.0699157
0.0343373
0.0355784
0.0224469
-0.0327408
-0.0613773
0.042456
0.0475911
-0.0229852
-0.0246059
0.00588276
0.000271921
-0.00615469
0.00192564
-0.0166298
0.0147042
-0.0306897
0.0023511
-0.00986429
-0.0155234
0.0651837
-0.0496603
-0.00692315
0.0268734
-0.0199502
0.00683835
0.0342442
0.0654463
-0.0275645
0.0200513
0.0211046
-0.0411559
0.0266224
-0.0284701
0.00375906
-0.00100103
0.0259859
-0.0676277
-0.00664823
-0.00435191
0.0226738
-0.0212508
-0.0225936
0.00524539
0.0173482
0.0662235
-0.0369024
-0.0293211
0.00274537
0.00198524
0.0259674
-0.0505062
0.0245387
-0.0526817
0.0346738
0.0180078
-0.0052455
-0.00142886
0.00667436
-0.0100998
0.00267934
0.00742044
0.0449882
-0.0423697
0.0296911
0.00308934
-0.0327805
-0.0112749
-0.00923959
-0.00468973
0.000195756
0.000171129
-0.000366885
0.0142015
-0.0539053
0.0221042
0.043766
0.0081572
-0.0111522
0.000619053
0.00687669
0.0948779
-0.0454259
0.0273236
-0.0493662
0.000419739
-0.000109999
-0.00030974
-0.0340694
-0.00487475
0.0227293
-0.0314941
0.0431874
-0.0207405
-0.00125892
0.000541901
0.0328284
-0.0753117
0.015734
-0.0198403
0.00410628
-0.0108995
0.00463317
-0.0127416
0.0323927
-0.00328524
0.0473981
0.036326
0.00656706
0.00419768
-0.0104138
0.0045955
0.03867
-0.00990866
-0.0287613
-0.0822957
0.0996001
-0.0251873
0.0473697
0.00765237
0.00987508
-0.0175275
-0.0217403
0.00763035
-0.000141032
-0.000675943
0.000816975
0.00157432
-0.000544266
-0.00103005
-0.00109078
-0.00933249
0.0104233
0.00147348
-0.00222168
0.000748195
-0.00648475
0.0100565
-0.00357173
-0.0146063
0.0103809
0.00422538
0.000280849
0.000348684
-0.000629532
-0.000460885
0.00118334
-0.0194842
0.0454516
0.0634993
-0.0473605
-0.0161389
0.00249684
0.00158838
-0.00408523
0.0197574
-0.0154892
0.00950561
-0.00988794
0.000382337
-0.0242627
0.0302468
-0.0123415
0.0368306
0.00454482
0.0100309
-0.0145757
-0.021017
-0.0069132
0.0279302
-0.0071706
-0.00506079
-0.00348096
-0.02549
0.028971
0.0012097
-0.0026981
0.0014884
0.00723562
-0.0279367
0.0207011
0.00126171
-0.00220915
0.000947435
0.0246414
0.0225546
-0.047196
-0.0241705
0.0451143
-0.0285848
-0.0165294
-0.00110563
0.00065217
-0.0293381
0.0481425
-0.0188044
0.0019353
-0.00763649
0.0333867
-0.00145739
-0.0319293
6.71483e-05
0.00520449
-0.00527164
0.104585
-0.0498309
-0.0547546
0.00314394
-0.00127322
-0.00187072
0.0269993
-0.0113091
-0.0156902
-0.0349902
-0.0232902
0.0243584
0.0239272
0.0232646
-0.0467588
0.0204862
-0.00687614
0.0648215
-0.0132141
0.0268524
-0.0136383
-0.0352537
0.0367016
-0.00616595
0.00124541
0.00492053
-0.0033108
0.00298277
0.0573097
0.042261
-0.0265529
-0.0310144
0.0575673
-0.0116347
-0.0116752
-0.045473
0.0394781
0.00599491
0.0777379
-0.058456
-0.0192818
0.0482045
0.00594286
-0.0541473
-0.0134993
0.021545
-0.0080457
0.00284986
-0.0106329
0.007783
-0.0048769
0.00350928
-0.0295845
0.0590492
-0.0396977
-0.018152
-0.0117512
-0.0235714
-0.0116822
0.0559001
0.0144064
-0.0430272
-0.00574436
0.0487715
-0.0150477
-0.00296604
0.0113562
-0.017428
-0.0387959
0.0497891
-0.0109932
-0.00293894
-0.000912427
0.00385137
-0.0621737
0.0104012
0.0517725
-0.00124581
0.00042974
0.000816071
-0.0208876
0.0118223
0.0090653
0.000646018
-0.000949844
0.000303825
-0.0208494
-0.00963125
0.0304807
0.023465
-0.0273417
0.00387672
0.0152646
-0.0404429
0.0244201
0.00323888
-0.0276589
0.000825302
0.00529074
-0.00611604
0.00680947
-0.0101423
0.00333288
0.0355633
-0.0410615
-0.0263371
0.0079783
0.0183588
-0.00214606
0.00130872
0.000837335
-0.0653158
0.0204348
0.044881
-0.0181128
-0.0126089
0.0307217
0.0229207
-0.0298438
-0.000449905
-0.00053207
-0.0556803
-0.00127718
0.00137295
0.0561601
-0.0482118
-0.020468
0.0443951
-0.00129868
-0.000847381
0.0476154
0.0404809
-0.000477766
-0.000768045
-0.000277787
-0.00176823
0.00204602
0.00812008
-0.00585139
-0.00226869
0.0215605
-0.0208074
-0.000753053
0.0255759
0.00142343
0.0403909
-0.00107734
-0.0393136
0.0029797
0.00331533
-0.00629503
-0.00994272
0.00933333
0.000609388
-0.0254912
0.0224943
0.00299688
0.0266536
-0.019418
-0.032326
-0.0341383
0.00701007
-0.00542625
-0.00158382
-0.0158125
0.0136795
-0.00531111
0.00703648
-0.00172537
0.0504427
-0.0449238
-0.00551889
0.0556803
0.0104907
-0.0661709
0.0568308
0.0100818
0.00218131
-0.0122631
0.0320534
-0.0650151
0.0329617
0.0137797
-0.0226659
-0.0274995
-0.00965451
0.00123591
0.00109606
-0.00233196
-0.036887
0.0520108
-0.0151238
-0.0281984
0.015319
-0.00679584
-0.0341554
-0.00863708
-0.0301588
0.00404358
0.0414381
-0.0454817
-0.0554694
0.0185825
0.0104276
-0.0189269
0.00849926
0.000528993
-0.00148441
-0.023513
0.0446824
-0.015721
0.0061557
0.0095653
-0.00768974
0.0482444
-0.0204404
0.0204404
-0.00409636
0.0155739
-0.0114776
0.000872381
-0.000817433
0.0563687
0.00494148
-0.0613102
0.00261843
-0.0599188
0.000473376
0.000160225
-0.0516611
0.0496857
-0.0391212
-0.0142779
0.0271239
0.00857664
-0.0374907
0.0501875
-0.0126968
-0.0337329
-0.00962648
0.00917691
0.0375417
-0.00160475
0.00285573
-0.00125098
-0.0103586
-0.0323267
0.0426853
0.00352265
0.00236012
0.000640373
0.00123769
-0.00187806
0.0584728
-0.0457784
-0.0126944
0.00189367
-0.00157943
-0.000314241
-0.0589726
0.000546907
0.00107811
0.0216942
-0.0107044
-0.0109898
0.021575
0.0123745
-0.0337562
0.0337562
-0.00682677
-0.00403657
-0.0130381
0.0520381
-0.039
-0.0239219
-0.00241515
0.00251593
0.00187042
-0.00438635
-0.0155135
-0.00712757
0.0134317
0.00826252
-0.058579
0.0246386
0.0339403
0.00779431
-0.0348806
0.0482756
0.0466023
-0.0364536
0.0159684
0.0204852
0.0240077
0.0264125
0.00593375
0.0340193
-0.0156095
0.0343533
-0.0467077
0.0123544
-0.0018892
0.047076
-0.0451868
-0.0112375
-0.0063943
0.0176318
0.0402452
-0.038864
-0.00138113
0.0515819
-0.0475384
0.0129603
-0.0101105
0.00821711
-0.0179216
-0.000110812
0.00302993
-0.0547223
0.0401163
0.0146059
0.000539554
-0.000655965
-0.000330458
0.00159094
-0.0526068
-0.0393437
-0.013338
-0.0188604
-0.0236083
0.0424686
-0.00216801
0.0146254
-0.0124574
-0.0233504
-0.00186918
0.0491236
0.0472245
-0.0744065
0.027182
0.0299603
-0.040319
0.0392223
-0.0306028
-0.00861947
0.0348613
0.0611056
-0.00958039
-0.0515252
-0.0399024
0.0217896
0.000893583
-0.000939438
4.58542e-05
0.00589408
-0.00326759
-0.00262648
-0.00805312
0.0170699
0.0206074
-0.0394678
0.0132505
0.0241749
0.0209393
-0.0108368
0.00435206
-0.00500053
0.0204068
-0.0233677
-0.00854071
0.0319084
-0.0346231
0.0587313
0.0830046
0.0463144
0.00625412
-0.0525685
0.0526589
-0.0286727
0.000703108
-0.00111136
-0.0525587
0.0179467
0.0536423
-0.0441423
0.00785985
-0.0064887
-0.00589926
-0.0379224
0.0438216
0.0592923
-0.0166851
-0.0475244
0.0338007
0.0137237
0.0187493
-0.0185807
-0.00716079
-0.0036547
0.0108155
-0.00244341
0.00133934
0.00110407
-0.00520989
0.00566705
-0.000457158
0.01166
-0.0436042
0.00260752
0.0109051
0.0315902
-0.0424953
0.0533712
-0.0725341
0.0191629
0.0373996
-0.0191078
-0.0182917
-0.00117912
0.0176004
-0.00938332
-0.011706
0.00240151
0.00930453
0.000186811
-0.000384935
0.000198125
0.0355109
-0.0255155
0.00363143
-0.00258012
-0.00105131
-0.00704536
-0.0566369
0.0636822
0.0293909
0.00971023
-0.0391011
-0.0399311
0.000744306
0.0391868
0.0381156
0.00507183
0.00293841
-0.00514621
0.00969102
-0.0172383
0.0136481
0.00359026
0.00409525
0.00179882
0.0237263