/*--------------------------------*- C++ -*----------------------------------*\
| =========                 |                                                 |
| \\      /  F ield         | OpenFOAM: The Open Source CFD Toolbox           |
|  \\    /   O peration     | Version:  4.0                                   |
|   \\  /    A nd           | Web:      www.OpenFOAM.org                      |
|    \\/     M anipulation  |                                                 |
\*---------------------------------------------------------------------------*/
FoamFile
{
    version     2.0;
    format      ascii;
    class       volVectorField;
    location    "200";
    object      U;
}
// * * * * * * * * * * * * * * * * * * * * * * * * * * * * * * * * * * * * * //

dimensions      [0 1 -1 0 0 0 0];

internalField   nonuniform List<vector> 
14558
(
(21.2787 -1.04237 -6.58466e-19)
(15.5177 -0.584401 0)
(21.0183 -0.981096 4.80587e-19)
(14.9934 -0.397668 -1.5188e-24)
(20.6526 1.2467 -8.86892e-20)
(18.1216 -3.78274 -2.74152e-20)
(17.2503 -0.0897918 -9.65091e-19)
(14.1535 1.58999 0)
(7.57452 0.480963 0)
(15.5843 2.89017 -6.66824e-20)
(27.1135 1.53163 2.44431e-20)
(16.1366 2.86163 0)
(21.6688 0.257058 -2.68514e-19)
(10.3184 -3.17741 -5.45884e-20)
(11.0873 -0.208749 -4.91481e-20)
(22.9671 -1.08534 7.06277e-19)
(25.7775 0.282371 0)
(23.2591 -2.91245 6.24328e-20)
(10.9345 -0.12724 4.74464e-20)
(4.94042 -0.529905 2.32678e-20)
(12.6001 0.815335 -2.52774e-20)
(5.78131 -0.391516 2.5574e-20)
(22.0085 0.147381 5.80795e-19)
(12.5137 0.8248 0)
(27.2418 1.47449 0)
(21.9672 0.304992 -8.26294e-19)
(26.8556 -0.117042 -3.98055e-22)
(25.8575 0.269494 -5.29391e-19)
(16.4002 3.01154 0)
(5.04296 -0.434295 5.83708e-21)
(5.05509 -0.503378 2.04037e-21)
(27.416 -2.14821 -3.20371e-19)
(20.7464 1.26191 -1.67787e-19)
(11.9854 -0.872316 -1.38617e-20)
(27.8535 2.27167 -6.10755e-20)
(22.9612 -1.81371 0)
(22.0134 0.147649 -1.49255e-18)
(14.4925 1.68704 0)
(22.1678 -2.21073 -1.50816e-19)
(6.19244 0.137069 0)
(25.9599 -0.182785 3.55947e-22)
(4.96558 -0.431548 0)
(28.3924 -0.595018 -1.53268e-20)
(7.98566 -0.749461 -2.4008e-21)
(18.3855 -3.70315 5.63536e-20)
(18.0153 -3.86075 -1.3117e-19)
(21.9683 0.283039 1.94564e-19)
(11.0371 1.33151 -2.62043e-20)
(5.16917 -0.618015 1.31724e-20)
(5.79287 -0.386424 -5.67832e-21)
(27.3302 -2.10555 7.96683e-20)
(4.91947 -0.313087 0)
(5.8282 -1.06308 0)
(22.9772 -1.83256 0)
(5.20713 -0.630103 -3.04528e-21)
(22.2434 -2.18478 3.06739e-19)
(10.4749 0.766332 -1.5245e-20)
(17.3879 -0.0476532 -9.10835e-19)
(23.2862 -1.57102 2.97929e-19)
(7.18046 -0.0859197 2.44246e-20)
(23.4785 -0.416304 -5.07829e-19)
(16.2374 -0.594087 0)
(13.5321 -0.769127 9.34299e-20)
(16.0659 2.95846 -2.91767e-19)
(28.9274 -0.612751 3.99398e-21)
(21.668 -1.05002 -4.40822e-20)
(21.6607 0.278736 3.17299e-20)
(7.01684 -0.148132 -2.08027e-20)
(6.67745 -1.20344 -3.89217e-20)
(21.6317 -0.726154 1.69485e-19)
(6.54896 -1.09548 2.66994e-20)
(24.6244 -0.3318 -3.51284e-20)
(22.8947 -3.00339 0)
(10.055 0.673973 0)
(21.3546 0.930187 2.79782e-18)
(22.7853 -1.6282 7.93541e-19)
(16.7362 0.433042 1.12019e-18)
(17.9918 -3.85603 0)
(23.2284 -1.50035 -7.65836e-23)
(8.36313 0.658483 -6.0092e-21)
(23.2051 -0.954653 -7.33688e-19)
(28.051 2.28054 -3.43629e-20)
(8.14986 0.27643 8.56904e-22)
(6.36489 0.173624 0)
(6.90891 -0.247725 3.00691e-20)
(12.0333 -0.815427 4.44747e-20)
(11.3542 -0.433721 -1.28262e-22)
(4.92563 -0.310415 5.94406e-21)
(13.7714 0.913673 0)
(22.95 -3.01372 7.35556e-20)
(23.4604 -1.09383 0)
(5.76191 -0.791176 9.01548e-21)
(10.5215 0.736673 0)
(23.3559 -2.89842 5.43459e-20)
(14.2503 -0.812029 -1.39669e-20)
(5.41126 -0.70302 -2.46681e-20)
(21.385 -1.54211 -2.86726e-19)
(22.0206 0.203349 1.30141e-18)
(21.7861 0.163807 -4.37977e-19)
(8.84443 -0.638652 -4.05613e-21)
(24.3549 0.297908 -2.08353e-18)
(20.2913 1.91381 1.86738e-20)
(20.5506 0.109532 1.75836e-19)
(23.8499 5.51778 0)
(22.6207 -0.0610745 -4.79285e-19)
(21.3396 0.332031 0)
(24.1955 0.277189 3.65135e-18)
(6.07127 -0.489192 1.36172e-20)
(20.4971 1.11012 -2.54924e-19)
(21.8547 0.106811 0)
(14.1676 -0.509093 1.6735e-20)
(23.8903 2.46052 0)
(21.9657 0.0827418 -1.13774e-18)
(21.9053 0.169014 -8.30435e-19)
(20.2957 1.99586 0)
(8.81925 -0.731045 0)
(16.9528 -0.223438 -1.27306e-21)
(23.0512 -0.841092 0)
(4.93514 -0.349302 -1.89285e-20)
(11.7269 1.36817 1.17552e-20)
(25.9139 0.816431 1.56288e-19)
(20.9222 3.33739 0)
(21.4146 0.494499 0)
(13.7215 -0.780745 -7.28345e-20)
(26.3837 0.500781 4.62858e-20)
(19.7987 0.700095 0)
(27.5156 0.540841 -9.64798e-21)
(8.92783 0.765251 -4.46947e-20)
(24.4003 1.74768 0)
(15.5214 -3.06621 1.91449e-19)
(25.9917 -0.978977 7.1976e-19)
(18.9647 -0.364747 4.004e-19)
(8.39739 0.119532 -1.52118e-20)
(20.5396 1.037 3.65584e-19)
(21.9322 0.0733604 -9.35136e-19)
(4.75032 -0.35156 -1.0194e-20)
(19.3011 0.374564 4.0687e-20)
(24.8204 -2.26735 5.24633e-20)
(18.7063 1.53305 0)
(30.3374 0.866737 1.35075e-20)
(25.0535 2.57601 -6.6778e-19)
(25.2723 -2.11053 -4.67134e-19)
(11.3516 1.44191 -3.6938e-21)
(13.3166 0.898414 6.60783e-20)
(27.5355 0.539296 1.15293e-20)
(23.293 3.47105 3.03903e-19)
(21.8927 -1.77107 -1.60054e-19)
(6.23208 -1.36532 1.37114e-20)
(20.7547 -1.32065 -8.84622e-20)
(21.3751 0.288268 1.38844e-19)
(22.3407 0.490419 0)
(12.2656 -3.58144 -9.92063e-20)
(22.055 -0.033982 0)
(18.7923 -3.70479 -5.71469e-20)
(5.22675 -0.716175 -1.06262e-20)
(21.8862 0.194172 -1.96578e-19)
(19.2443 2.60442 -6.96696e-19)
(5.80077 -0.729197 0)
(21.9812 -0.0986372 0)
(31.9775 -0.407594 8.58054e-20)
(18.486 -0.87277 -4.68779e-20)
(26.8907 1.21434 0)
(23.5447 -0.352544 -2.7592e-18)
(21.9886 -1.75972 0)
(23.809 3.28884 1.02666e-19)
(5.68614 -1.02093 1.1208e-20)
(22.0625 0.0612742 -2.50691e-18)
(8.14532 -0.748766 5.81487e-22)
(21.0276 2.47887 -9.04108e-20)
(21.4017 -1.66775 2.71535e-19)
(22.0002 0.0150915 0)
(12.7824 2.08649 -3.53178e-20)
(6.98977 -0.758682 -1.59328e-20)
(6.1094 0.832877 -1.9319e-20)
(6.88936 0.242524 0)
(5.74746 -0.539951 -3.59573e-21)
(19.2095 0.751394 2.24851e-20)
(5.8973 -0.96982 0)
(21.4248 0.799645 2.8285e-19)
(28.0493 -0.26572 3.05011e-21)
(23.0532 3.54687 0)
(21.8006 0.414203 2.21485e-19)
(19.9689 -4.00731 3.70422e-19)
(19.2596 -2.56894 0)
(19.633 1.17621 1.13694e-19)
(5.03415 -0.479162 -3.24162e-20)
(6.99934 -0.303082 1.15447e-20)
(22.8445 -0.41078 3.99054e-19)
(5.36752 -0.213894 1.70361e-20)
(20.5821 -3.12861 -6.49822e-20)
(4.83767 -0.31156 -2.2865e-20)
(22.5451 0.663859 1.88118e-18)
(5.25172 -0.413815 6.2657e-22)
(21.6817 0.294626 -2.54175e-19)
(4.92286 -0.314534 -6.12736e-21)
(29.7383 -0.100755 0)
(5.09434 -0.504927 7.47483e-21)
(20.3191 1.10454 0)
(7.17788 0.324175 0)
(6.33466 -1.46189 9.51512e-21)
(15.204 -0.694738 2.05352e-20)
(21.9558 0.0102021 4.91265e-19)
(27.6226 1.75304 -3.07782e-20)
(22.2973 0.515335 -1.17656e-18)
(23.0841 -1.59709 6.40014e-19)
(7.92933 -1.03655 0)
(21.6856 -0.385902 -2.67923e-19)
(25.9567 2.13363 3.82003e-20)
(27.5932 -2.09405 0)
(20.6718 -2.88076 8.78578e-21)
(24.3878 0.891881 -5.1715e-19)
(21.9101 0.0115317 0)
(21.8997 0.0649858 0)
(13.4235 -0.624077 -1.07522e-20)
(22.6687 1.18556 0)
(21.7604 0.000564593 2.42538e-19)
(22.9278 3.4804 -2.87351e-19)
(5.71773 -0.647714 -3.33196e-21)
(4.82593 -0.319406 2.00889e-20)
(6.75812 0.13998 4.64379e-20)
(16.811 -0.694966 0)
(22.3411 -1.98066 -3.21929e-19)
(24.8164 1.75766 0)
(22.6404 -0.0440771 -1.37716e-18)
(21.629 -0.256788 5.43575e-19)
(22.9074 0.0587485 1.12553e-18)
(16.3637 -0.480179 -5.51197e-19)
(5.3194 -0.620772 -5.5944e-21)
(17.748 0.141456 0)
(21.9735 0.0670521 7.81646e-19)
(21.8973 -0.0684017 -3.03938e-19)
(22.1851 0.255524 6.49145e-19)
(23.4555 -1.08157 8.40588e-19)
(22.4827 0.00148238 -8.32392e-19)
(25.1947 -0.328597 -2.35529e-21)
(9.83883 -1.75189 -1.98472e-20)
(20.8157 3.53533 0)
(5.19667 -0.640631 -1.48521e-20)
(23.3143 -1.52973 1.24319e-18)
(24.2355 -1.21164 1.62493e-19)
(8.62152 0.189446 0)
(22.1908 0.349279 -1.20273e-18)
(19.1421 3.19698 0)
(4.88476 -0.42705 -1.18234e-20)
(11.749 -0.317816 0)
(8.48043 -0.733009 0)
(22.0589 0.319846 -8.64664e-19)
(24.8911 0.259341 8.7614e-19)
(23.1093 0.0394566 -8.08448e-21)
(19.2433 8.73077 -2.63986e-19)
(6.30882 -1.44762 4.86597e-21)
(21.8013 0.169051 2.17207e-19)
(21.9577 0.0044944 0)
(22.0383 -1.95006 3.06707e-19)
(4.75537 -0.411291 -1.56969e-20)
(11.1273 -3.6059 5.8198e-20)
(21.0187 2.62629 0)
(23.8638 -0.394643 1.37678e-18)
(21.8621 0.120523 4.29732e-19)
(21.9947 0.0321084 -6.89048e-19)
(21.9957 0.0354824 7.75026e-19)
(14.1711 0.966049 7.02554e-20)
(24.8677 0.309673 -1.75958e-18)
(23.4162 -1.7917 -1.49847e-19)
(9.9777 -0.777126 -1.89768e-21)
(22.7478 -1.37444 3.59561e-18)
(23.4063 -0.0523211 -9.50271e-19)
(8.74974 0.267606 0)
(4.92562 -0.4091 6.03415e-21)
(8.34227 -0.672324 0)
(23.938 1.01375 1.20841e-18)
(21.9807 -0.285916 -1.08218e-18)
(13.1128 -3.96101 1.53362e-20)
(9.70816 -1.6997 0)
(21.9347 0.112082 0)
(13.3373 -0.81354 6.20013e-19)
(6.41841 -0.422225 1.68349e-20)
(9.01607 0.758108 -4.25464e-20)
(27.2591 -0.177422 0)
(14.4557 5.12057 1.05121e-18)
(21.4482 0.851152 0)
(23.2946 1.04083 1.19042e-18)
(21.8076 0.383531 -6.57076e-20)
(19.7299 -2.67519 1.84916e-19)
(23.3662 0.969441 -1.24914e-18)
(24.0178 0.991844 -2.49457e-19)
(23.0645 3.20024 1.18009e-19)
(18.2938 -5.02315 -1.81246e-20)
(22.4384 0.212439 7.34088e-19)
(5.71348 -0.281839 1.09887e-20)
(23.1878 3.30489 -9.60267e-22)
(21.9544 0.0647751 -7.26507e-19)
(19.7819 -0.158475 -2.46916e-20)
(8.03447 -0.0823173 3.12013e-21)
(5.56345 -0.723817 4.82639e-20)
(23.2562 -0.98451 1.14511e-18)
(8.44269 0.14797 7.99201e-21)
(25.2834 0.41877 0)
(11.7474 -0.802269 1.10454e-20)
(13.6069 -0.42179 -3.71107e-21)
(27.8917 0.486262 0)
(5.59591 -0.29337 -1.32397e-20)
(9.46409 -3.12448 -7.38827e-20)
(9.47538 -0.441193 -8.45726e-19)
(22.169 0.459309 4.74844e-19)
(23.5157 4.45843 5.87251e-19)
(19.1257 -0.215359 -3.62655e-19)
(21.8995 0.0561982 8.97936e-19)
(20.4536 -1.58168 0)
(25.9751 0.998383 -1.02705e-19)
(22.6698 -0.011523 0)
(25.7896 0.585949 -9.37187e-19)
(23.6376 0.571679 1.44343e-18)
(22.0147 0.110576 1.6677e-18)
(5.06279 -0.451814 0)
(19.6053 2.12632 0)
(22.05 0.099119 0)
(22.1964 0.73166 1.03911e-18)
(9.57 -0.64514 5.72428e-20)
(22.0017 0.00105148 -2.30486e-18)
(5.39884 -0.645399 3.21193e-20)
(8.7376 -0.600149 4.45588e-21)
(9.81991 -1.71189 1.74954e-20)
(4.74468 -1.25692 0)
(23.882 -0.0230744 0)
(24.5102 4.13642 0)
(23.514 0.462517 0)
(6.78338 -1.78379 -4.02085e-20)
(22.0245 0.0152483 8.14128e-19)
(26.1533 0.535523 -5.56442e-19)
(22.0188 0.1242 -1.53288e-18)
(5.45185 -0.0833903 0)
(4.63518 -0.781701 6.66021e-21)
(26.8265 0.386667 0)
(29.5154 -0.664599 -1.59516e-19)
(16.768 -0.283863 1.74029e-21)
(23.9417 0.494263 -8.62184e-21)
(23.0889 -0.0344014 0)
(20.5133 -4.06369 4.16853e-19)
(16.5648 1.38722 5.6481e-21)
(12.2412 -3.68031 -1.24569e-21)
(22.4929 0.606858 2.71511e-19)
(20.1745 0.914694 0)
(21.92 0.00729886 1.15296e-19)
(18.5046 1.3711 0)
(6.06517 -0.520681 1.34817e-20)
(11.8631 0.861582 -4.54011e-20)
(22.738 -1.57352 -6.63756e-19)
(25.9152 -1.63928 2.10403e-21)
(5.7063 -0.747342 -8.99555e-21)
(22.4896 0.204317 1.5753e-18)
(7.80766 -2.3358 -4.2011e-20)
(7.0109 -1.32009 1.01263e-20)
(25.411 0.305858 1.56491e-18)
(29.6097 0.158048 0)
(21.8928 -0.896013 0)
(25.4083 2.5383 4.05447e-19)
(23.3526 -0.575038 -6.75399e-20)
(29.6455 -0.647983 9.70432e-19)
(10.3055 -2.51021 6.96176e-21)
(21.956 0.0582187 -1.02193e-19)
(4.72847 -0.404849 2.08578e-20)
(22.0077 0.0603674 1.09758e-18)
(23.0013 -1.85445 1.83598e-19)
(6.48431 0.0855976 0)
(21.9966 0.0362937 7.16773e-19)
(23.2444 -1.66753 6.7769e-19)
(14.1581 -0.782763 9.24269e-21)
(5.45405 -0.662616 3.26141e-20)
(31.5711 0.290949 1.10378e-19)
(22.8302 -1.83674 -8.21603e-20)
(22.0512 0.29895 4.29292e-19)
(20.8642 -3.10614 0)
(22.6178 -2.94148 -2.11123e-19)
(23.9989 5.31156 0)
(22.1138 -0.515458 0)
(16.1037 -0.960611 6.13572e-20)
(15.4774 -1.7098 0)
(25.0439 1.31055 -5.6764e-19)
(24.1408 -0.985471 -1.01931e-18)
(12.5247 -0.755148 -1.40994e-20)
(21.9316 -1.84043 -3.25398e-19)
(20.7983 -1.84705 2.0127e-19)
(21.9681 -0.012002 1.78207e-18)
(21.959 0.0904336 2.48351e-22)
(16.7555 2.54449 -2.83208e-20)
(21.0731 -0.922095 1.9109e-19)
(22.3034 0.185274 7.67083e-19)
(6.99587 0.17889 -4.34284e-20)
(23.3745 -0.997276 0)
(19.7251 1.27777 0)
(27.5103 1.78724 -1.05683e-19)
(22.0257 0.0841624 1.08712e-18)
(22.6148 -0.0928563 5.65039e-20)
(12.5381 0.88933 4.15818e-20)
(24.8771 -2.18925 0)
(22.4926 0.528284 -5.94502e-19)
(27.5939 0.00395612 -5.06092e-20)
(26.722 4.01597 -3.35261e-20)
(21.3525 0.0267123 -3.25642e-19)
(11.5197 1.27605 1.55449e-19)
(9.92863 1.13307 0)
(21.8984 0.186275 7.70093e-19)
(19.101 -2.62425 -1.29448e-20)
(24.3673 0.22778 2.16227e-20)
(6.21029 -1.42123 -8.56767e-19)
(29.2427 0.0979815 0)
(20.2641 -0.834649 -6.44301e-20)
(26.2362 0.762835 0)
(25.8071 1.01339 3.09915e-19)
(21.394 0.540877 -1.52048e-19)
(5.15087 -0.462933 0)
(11.1947 -0.417267 0)
(22.0051 -0.00236154 5.90638e-19)
(23.1786 -2.48726 -2.41994e-19)
(26.2723 0.258874 -4.60075e-20)
(20.928 -0.809732 3.64756e-19)
(16.286 -3.75702 6.98418e-20)
(22.0162 0.0901419 1.00125e-18)
(24.6486 4.32646 3.66779e-19)
(7.73845 0.0419156 -1.04611e-20)
(8.87029 -1.3595 0)
(17.8551 -3.73047 0)
(19.6026 -2.00342 0)
(11.5475 -0.560076 0)
(25.2478 -2.18283 0)
(15.3203 3.24404 -2.03273e-20)
(19.9935 0.73861 -7.22782e-20)
(20.033 -0.447431 5.88199e-19)
(24.5537 -0.150436 0)
(19.5194 1.61986 2.77517e-20)
(23.8459 -1.49087 -6.10274e-19)
(17.754 -2.31548 -4.92769e-19)
(6.27282 -1.44215 3.32528e-21)
(26.1262 2.05675 -5.25548e-20)
(21.7631 -0.0144747 -2.42942e-19)
(21.0547 -1.14504 6.66261e-19)
(21.9165 -0.529038 3.60196e-21)
(22.5576 1.98681 1.38594e-19)
(24.9005 2.47729 4.40497e-19)
(25.4442 0.694947 1.25128e-19)
(14.2502 -2.32362 3.68418e-20)
(5.16529 -0.455085 -1.90993e-21)
(20.1915 -0.490818 -1.01211e-18)
(26.2095 -0.281799 0)
(22.5596 2.1031 0)
(22.0527 0.0267927 -1.70904e-18)
(21.6829 1.01208 -1.40179e-19)
(22.0424 0.0171976 -7.26469e-19)
(8.21316 0.244225 3.95017e-21)
(24.6578 -0.48282 2.46479e-19)
(5.72126 -0.526309 -1.02078e-21)
(9.5011 0.475153 -1.46073e-20)
(22.0402 0.0831008 -2.66714e-19)
(23.37 4.39874 0)
(20.943 1.45166 -1.37756e-20)
(10.1303 0.535408 3.8122e-20)
(16.6296 -3.73046 7.18993e-20)
(27.2433 -0.600379 0)
(21.889 -0.456757 6.76319e-19)
(22.8978 -0.431996 -2.8044e-18)
(18.0894 -0.906191 2.07052e-21)
(22.3743 0.156386 8.03787e-19)
(23.0424 0.253928 -9.71984e-19)
(14.0135 0.924375 7.17784e-21)
(4.80352 -0.306849 1.27731e-20)
(19.8317 -0.0515224 -9.23949e-20)
(7.57909 0.444428 -4.70839e-20)
(22.0722 0.37944 4.54578e-19)
(5.17301 -0.298107 -3.41486e-22)
(25.455 0.283349 0)
(11.387 0.807631 -2.6129e-20)
(23.0665 -1.75161 -8.70334e-20)
(24.7274 1.13177 0)
(21.7319 -1.02968 3.80319e-19)
(22.0084 0.0987679 0)
(22.402 0.0357413 -7.3363e-21)
(11.7356 -3.82996 -1.26607e-19)
(21.9987 0.0581135 -1.6471e-18)
(20.4599 -0.844477 -8.48023e-20)
(26.4245 -0.358409 0)
(24.1772 -0.634728 5.31126e-20)
(19.0154 -0.16657 0)
(18.1126 -3.03606 0)
(5.19595 -0.461389 -2.34223e-21)
(27.5586 -1.10629 4.56693e-19)
(4.96867 -0.419449 0)
(5.19037 -0.255741 -4.72944e-21)
(24.6439 0.196452 -2.14417e-20)
(20.0237 -2.09795 0)
(5.47278 -0.188162 0)
(12.7722 -0.185692 -1.28506e-18)
(26.1905 1.22896 5.21734e-19)
(10.027 0.559231 1.32843e-20)
(19.5642 1.45872 0)
(9.67054 -3.16404 7.99754e-20)
(22.4155 -0.845459 -6.95588e-19)
(10.5863 -3.17091 -1.07801e-19)
(23.9186 -1.47747 -6.12759e-19)
(15.4263 -3.61234 3.15384e-20)
(5.05623 -0.464458 0)
(12.5999 -0.490504 -1.03847e-20)
(15.9879 -4.08526 5.15665e-20)
(23.3757 -1.00604 -5.19186e-19)
(22.8133 -1.37759 -1.51011e-18)
(11.8385 1.35444 0)
(25.4539 -1.34366 -4.46761e-21)
(22.0541 0.355377 0)
(20.187 -0.215628 7.27965e-19)
(26.1268 0.733166 -1.0362e-19)
(28.5529 -0.0830533 -8.26222e-21)
(17.9372 0.458892 0)
(31.8906 -0.020734 -2.42183e-19)
(23.0381 -1.54687 6.24444e-19)
(21.6496 0.174453 3.43209e-20)
(22.8833 -1.91432 -6.84747e-19)
(22.005 -0.0268246 -2.58104e-19)
(12.6366 -0.841015 -3.40347e-20)
(18.757 -3.10673 1.62734e-19)
(24.7955 -1.2172 3.4118e-20)
(21.9948 0.0175729 0)
(27.2824 1.21462 0)
(15.5279 -1.71518 0)
(23.2798 -1.62479 6.49817e-19)
(5.43507 -0.858049 -1.60135e-20)
(15.4119 -2.87596 4.02125e-19)
(27.1856 -0.583709 0)
(21.8958 0.121075 -1.51496e-18)
(25.2625 -0.340868 0)
(5.9499 -0.452285 -8.91414e-21)
(21.4019 -0.228276 -1.64563e-19)
(24.8974 4.08044 -4.31234e-19)
(23.957 -1.52102 6.23209e-19)
(22.955 -1.62758 -7.13025e-19)
(25.961 0.802468 -5.06139e-19)
(7.97337 -0.673486 0)
(12.468 -0.67484 -1.41122e-20)
(21.9284 1.1318 2.94659e-20)
(20.0236 -2.95459 -2.67067e-19)
(4.85748 -0.322095 -2.62369e-21)
(7.52515 -1.07298 -1.09441e-20)
(14.8031 0.180346 -1.06929e-18)
(26.1186 0.257094 -6.05898e-19)
(25.5499 -0.446229 -1.63043e-22)
(5.61078 -0.600414 6.31231e-21)
(10.1685 0.795362 7.61143e-20)
(21.2729 0.0664057 0)
(21.9013 0.0227135 0)
(8.55986 0.756199 0)
(21.8762 0.143774 -4.1734e-19)
(20.7537 -0.715075 0)
(11.008 1.38469 2.53856e-20)
(13.7897 -0.735361 1.77379e-18)
(22.3385 -1.92333 0)
(25.891 1.17722 -2.6167e-19)
(26.9352 0.47204 0)
(19.7635 2.725 1.31436e-19)
(27.8703 -0.219781 5.89133e-21)
(5.58323 -0.846005 1.35807e-20)
(22.058 0.185438 -2.24603e-18)
(26.8698 0.314546 0)
(12.2748 -0.00744848 2.02878e-21)
(10.0607 -2.06461 -2.37066e-20)
(20.7876 -1.1954 5.44896e-19)
(13.5683 -0.567179 -1.3142e-20)
(26.0925 -0.885728 -1.60322e-18)
(23.8747 -0.828773 7.38711e-19)
(22.0412 3.979 0)
(24.2695 0.757823 6.72206e-19)
(19.8488 2.63861 0)
(22.0002 0.0109923 -5.75647e-19)
(5.21838 -0.412632 -8.20143e-22)
(22.7603 -0.222351 -5.27141e-19)
(21.9017 -0.654819 -3.07936e-19)
(26.2051 0.668238 3.78756e-19)
(16.8487 2.60197 -8.96819e-21)
(24.6359 -0.43823 -5.28428e-22)
(22.0621 1.42885 -2.96711e-19)
(24.9026 0.979842 -3.33329e-20)
(25.4302 0.314109 0)
(21.8829 -0.818409 0)
(22.1082 0.907116 5.23382e-19)
(18.9759 8.09837 0)
(20.5347 -1.15837 3.42299e-19)
(22.0999 0.040559 8.41339e-19)
(21.9773 1.16087 2.53442e-19)
(31.4885 0.125109 -3.34004e-20)
(24.0287 0.275384 0)
(10.4334 0.607814 -1.76981e-20)
(21.9678 -0.0104642 -5.50867e-19)
(12.2151 0.841991 5.29666e-20)
(22.5723 3.46449 -1.03496e-19)
(15.8139 -0.758444 0)
(29.6452 1.61078 1.59144e-19)
(17.7922 -0.85473 0)
(24.9799 1.63061 3.03801e-20)
(28.2368 -0.330237 2.91995e-21)
(25.9887 -1.54763 1.41709e-20)
(21.4112 -2.22229 1.56036e-19)
(11.9819 -0.60346 4.19037e-21)
(4.76409 -0.395567 0)
(4.88726 -0.421695 -1.40781e-20)
(25.8464 2.64753 3.32919e-19)
(10.258 -2.24107 2.59397e-20)
(25.9958 0.928695 4.64882e-19)
(15.2967 0.759688 0)
(15.8461 0.298413 -2.19528e-18)
(21.964 0.0622457 -5.37532e-20)
(22.0776 -1.19433 0)
(21.9509 0.00111451 -4.63157e-19)
(19.3612 1.95014 -6.02357e-22)
(6.5204 -1.44364 -1.48985e-20)
(15.3737 0.905518 5.46154e-20)
(17.3181 0.918417 -1.08192e-20)
(23.0315 -0.457083 8.52207e-19)
(21.0684 0.847665 -5.34377e-19)
(9.44464 -0.32415 -2.89162e-20)
(27.9558 -1.79876 2.08029e-19)
(13.1805 0.206263 1.47215e-20)
(5.96269 -0.389649 -1.04687e-21)
(21.7907 -1.16444 -1.31442e-18)
(6.4311 0.028574 0)
(21.4141 0.186354 -1.01697e-21)
(22.002 1.0198 -6.78071e-19)
(22.0289 -0.636181 -5.98308e-19)
(10.1053 0.182118 -3.24168e-20)
(25.2905 2.45249 -4.87536e-19)
(25.3353 0.262604 -5.35112e-19)
(30.5154 0.00318192 -4.35737e-20)
(4.75289 -0.364534 -1.0427e-20)
(13.4459 -0.682928 -3.29776e-20)
(26.2189 2.78555 1.00094e-19)
(10.1798 -0.786333 -1.64125e-20)
(22.4857 -1.5359 -6.43123e-19)
(11.0053 0.376549 0)
(19.7152 -4.07504 -3.84086e-19)
(22 0.00926055 0)
(22.1887 0.77784 -1.14405e-18)
(4.85275 -0.413019 4.35847e-21)
(26.1791 0.240899 0)
(5.26157 -0.236924 -2.9292e-21)
(27.4052 -0.632774 -3.01354e-19)
(27.5134 -0.260959 0)
(5.58871 -0.957682 0)
(21.9995 -0.105378 1.51287e-19)
(21.7717 -2.29872 -7.41307e-20)
(24.1912 3.21983 -1.92396e-19)
(25.3334 1.07201 -2.21306e-19)
(21.9632 0.0678985 8.81145e-19)
(27.0744 0.420816 0)
(21.1269 0.799007 -1.15907e-19)
(11.1175 0.432683 1.95622e-20)
(17.3971 0.649492 0)
(16.4696 0.371387 -1.19304e-18)
(6.11918 -0.180541 -3.24788e-20)
(9.12431 0.604193 0)
(6.57083 -1.31876 1.07045e-18)
(27.4563 -1.63512 -3.45477e-20)
(5.97081 -0.776609 0)
(19.3282 -2.46767 0)
(22.0767 -0.236305 0)
(19.5738 0.117428 -2.23475e-19)
(4.846 -0.311013 -2.03261e-20)
(21.7738 0.119978 0)
(25.2157 1.04578 3.40069e-19)
(22.5571 0.494262 3.41685e-19)
(24.8791 0.759605 -6.88042e-19)
(21.9967 0.0481988 6.89236e-19)
(5.26625 -0.437952 -7.58621e-23)
(5.54796 -0.502374 0)
(22.1647 -0.946631 0)
(13.7161 -3.99289 0)
(21.6697 -2.87576 0)
(21.9935 0.952108 1.1852e-18)
(8.3607 0.220695 -1.61096e-20)
(26.2682 0.0555558 -7.23208e-20)
(24.169 2.43731 0)
(25.1842 -0.587083 0)
(23.0505 -0.761829 0)
(5.02461 -0.450342 6.65986e-21)
(8.44644 0.101624 -1.78791e-20)
(13.7096 -0.771593 -7.83034e-19)
(5.96903 -1.03381 -4.26726e-22)
(22.0127 -0.274537 7.60775e-19)
(21.6739 0.936057 7.49493e-19)
(5.29755 0.133373 1.4762e-19)
(16.7571 -1.65238 0)
(10.6598 -0.762669 0)
(22.7176 -1.91146 -5.58954e-19)
(5.39094 -1.27273 -2.59498e-18)
(4.73749 -0.48866 -2.80827e-20)
(24.2535 0.154588 5.7286e-19)
(4.59025 2.42188 1.74269e-19)
(9.67154 -3.18413 1.71778e-19)
(19.9141 -0.051069 0)
(26.2067 1.53237 1.7608e-19)
(28.0483 -2.01508 9.59492e-20)
(22.006 0.169585 0)
(21.4456 0.222784 -1.488e-19)
(5.79569 -0.0864497 -1.68636e-20)
(20.2924 -1.96523 -2.11952e-21)
(26.1613 2.87516 -3.2751e-19)
(5.97609 0.728207 0)
(19.9386 1.79588 0)
(20.6057 -0.283828 1.12927e-20)
(12.7094 -2.6852 0)
(22.6414 0.805419 0)
(8.74549 -0.648502 0)
(26.5484 0.902729 4.64068e-19)
(25.5906 1.70453 0)
(22.0057 0.0342929 8.5854e-19)
(12.2996 -0.703826 0)
(28.0434 -2.03781 0)
(17.9912 0.115135 0)
(24.2073 0.0443193 -4.14487e-19)
(15.7569 -3.68681 -6.56526e-20)
(22.0873 -0.280304 0)
(20.2363 1.16175 -6.72229e-22)
(15.9476 1.006 0)
(17.4586 6.27052 0)
(25.5301 0.21186 -8.18221e-19)
(16.5258 -0.0884054 -1.97774e-18)
(21.9517 -0.00260342 1.23658e-18)
(10.0478 -0.260658 4.00637e-20)
(16.606 -0.900517 -2.04206e-20)
(22.1247 -0.289883 3.57811e-19)
(13.28 2.07279 -2.84735e-19)
(24.0857 -1.08598 2.17746e-19)
(12.3799 -0.0994157 0)
(22.1787 0.426607 0)
(26.4461 4.36516 -1.27777e-20)
(6.71206 -0.677044 1.70376e-20)
(23.2058 3.40611 1.01626e-19)
(7.11868 -1.02667 0)
(22.6309 -1.57497 -6.66049e-19)
(24.1351 0.156703 -1.40777e-18)
(21.4833 3.16587 0)
(21.6863 -0.702834 -6.19151e-19)
(6.35406 -0.429484 6.53618e-21)
(5.482 -0.760834 -6.74636e-21)
(23.0941 -1.80554 -3.26007e-19)
(16.794 0.0885861 2.75361e-21)
(6.31029 -0.506079 1.78924e-21)
(24.8527 -0.221302 0)
(26.2792 1.49856 -3.49129e-19)
(19.5109 -1.85576 -4.21437e-19)
(21.9118 -0.0701718 0)
(24.9449 0.699594 3.1701e-19)
(18.5682 0.376108 -7.47995e-19)
(6.20103 0.0318679 1.8226e-20)
(16.0679 -0.883073 0)
(21.6945 6.05819 -2.50799e-19)
(22.8019 -0.0505789 0)
(28.5567 -0.326793 -1.69512e-18)
(24.584 -0.318523 0)
(6.93117 -1.8486 -1.96678e-20)
(18.8972 -0.766241 -2.67565e-19)
(24.621 2.05713 -4.61582e-19)
(18.2878 1.3066 -3.00045e-19)
(24.2751 0.32823 -1.14529e-18)
(19.467 -0.00867806 -1.28568e-21)
(13.3528 -4.01903 1.05335e-20)
(25.3099 1.32697 -2.81982e-19)
(22.6714 -3.0473 -6.08449e-20)
(29.2822 -0.547898 4.32322e-19)
(5.38139 -0.727366 -2.02791e-20)
(20.7672 -0.802913 0)
(13.919 -0.542702 7.36141e-21)
(22.0385 0.125198 2.23123e-21)
(9.72602 0.538682 -1.31681e-20)
(19.4389 1.85862 0)
(22.3052 0.00211952 2.40921e-18)
(19.7165 0.00118265 0)
(20.2313 -0.346667 -3.12308e-19)
(29.0075 0.346514 2.95644e-20)
(27.3621 -1.09994 7.41098e-21)
(20.8199 -2.33021 1.65678e-19)
(15.9499 -1.7665 0)
(8.84635 -2.09724 -5.79699e-19)
(21.9572 0.0388189 1.8867e-19)
(22.393 -1.60263 0)
(21.9958 0.0445994 -1.41316e-18)
(21.6189 -0.157183 0)
(10.6571 0.635648 -3.5981e-19)
(20.7388 -2.76547 -1.24427e-19)
(26.158 0.197236 7.35253e-19)
(15.1274 2.79728 3.54341e-19)
(29.0329 -0.240427 -1.43657e-20)
(16.9279 -0.365133 0)
(16.3503 -0.947349 -1.6878e-20)
(22.9019 -0.188846 0)
(18.8542 0.864983 -2.44275e-20)
(19.8853 -0.0664008 0)
(9.29226 -2.93894 1.50426e-21)
(21.9637 0.0465803 -3.95923e-19)
(13.6597 -1.03904 6.97616e-19)
(21.3774 -0.00887042 -1.58924e-19)
(21.7198 3.50263 1.01752e-19)
(27.337 0.315264 -2.42961e-20)
(8.79593 -1.32986 -1.47716e-20)
(19.3133 -0.848984 -2.5523e-20)
(25.7512 1.57778 -1.13897e-19)
(13.0059 -3.6046 -7.88609e-21)
(8.88212 0.547307 2.93874e-20)
(23.3552 0.0776753 -2.7171e-18)
(23.9754 -0.414716 0)
(19.2715 2.33212 -1.88201e-19)
(13.6052 -4.05115 -1.02397e-20)
(4.6061 -1.05283 -8.43192e-23)
(24.9067 1.8569 0)
(15.694 0.0987169 3.15261e-18)
(26.1431 0.698081 -4.36319e-19)
(17.9676 -5.50807 -5.64518e-19)
(7.79275 -0.000530279 1.01021e-20)
(27.5886 -0.115216 0)
(23.7003 0.503234 0)
(4.79715 -0.404709 7.44287e-21)
(22.8159 -0.0107629 6.30424e-19)
(21.7718 0.134313 -2.49636e-19)
(22.4044 -1.70688 0)
(6.20641 -1.38301 -3.01582e-20)
(22.007 0.0849591 0)
(16.9059 -0.133681 1.11564e-18)
(8.41089 0.278974 -3.35518e-20)
(18.0684 -0.0291522 -5.43596e-21)
(26.5631 0.996688 0)
(17.1052 0.918548 1.90139e-20)
(10.2419 -3.34736 0)
(22.9773 3.41827 -2.39905e-19)
(10.5698 0.525678 -1.94456e-20)
(22.6276 -1.80652 -3.18846e-19)
(27.9598 0.110108 0)
(22.4418 -0.944388 3.41936e-19)
(15.9068 0.258169 0)
(19.4876 -2.78268 0)
(4.96242 -1.8607 -2.46351e-19)
(4.74926 -0.394528 3.27207e-20)
(9.84801 0.38228 -2.22774e-20)
(5.0343 -0.426029 0)
(15.4374 2.68915 0)
(15.8675 -2.66508 -1.63478e-20)
(4.7896 -0.30301 0)
(5.01608 -0.347746 2.56881e-20)
(20.1804 -0.84427 -1.80993e-20)
(22.6252 -0.610705 3.15596e-20)
(7.75523 -0.602363 -2.41058e-22)
(10.5587 0.629449 -4.24894e-20)
(14.5335 1.99692 0)
(21.7333 1.02386 -1.44224e-19)
(22.1472 0.918066 -5.15363e-19)
(14.1878 -1.9736 6.95305e-19)
(21.5255 -2.44235 0)
(9.46326 -2.02327 0)
(16.007 0.930624 1.73847e-20)
(5.34176 -0.112096 0)
(24.5794 4.90445 0)
(4.87039 -1.85985 -3.72886e-21)
(29.8464 1.17173 0)
(20.896 -1.14175 -1.91038e-19)
(21.5698 -0.969568 0)
(5.14225 -0.487686 0)
(22.0784 -0.793127 6.53621e-19)
(9.02091 -0.682227 1.0803e-20)
(21.5439 -0.612539 0)
(10.8051 7.18573 -9.49721e-19)
(32.4858 -0.0878597 -2.44608e-20)
(8.63816 -1.68327 -1.41184e-20)
(18.342 0.18239 4.33003e-21)
(22.9434 -1.5859 6.19194e-19)
(22.0856 -0.683211 6.1259e-19)
(21.8843 0.022851 0)
(22.6384 0.517975 -1.4565e-20)
(22.0065 -0.0337123 2.766e-19)
(18.7503 -1.72331 1.08125e-18)
(25.6647 3.87582 3.27878e-19)
(11.7667 -3.72656 -2.3223e-20)
(10.6061 1.22358 -2.74338e-20)
(30.7725 0.0034514 -1.15943e-20)
(25.9549 2.26672 3.57471e-19)
(19.1292 2.99684 -1.3911e-19)
(22.4209 1.70108 0)
(29.0093 1.6003 0)
(21.9141 0.25582 -8.18319e-19)
(19.5979 0.652107 1.99217e-19)
(15.6107 -1.2713 0)
(9.83031 -0.703815 1.2795e-18)
(26.1195 -1.12005 -6.33005e-19)
(21.9728 0.0622291 -3.586e-22)
(16.5265 0.402661 0)
(25.2798 4.25195 -1.99993e-19)
(25.0162 -0.546607 0)
(22.2341 0.55283 0)
(13.1414 0.13226 1.11978e-20)
(17.6512 -0.882639 -1.35874e-21)
(22.7535 -1.38866 -2.63746e-19)
(8.96457 0.166486 2.51497e-20)
(23.9319 1.75102 -2.31499e-19)
(5.82253 -0.107622 0)
(19.6233 -3.46217 -4.63259e-20)
(5.88004 -0.0626683 5.58204e-22)
(20.1992 2.31635 2.56748e-19)
(17.309 -2.42851 0)
(22.0119 0.0332329 5.20112e-19)
(21.6444 1.683 -6.10037e-19)
(10.7969 -0.570475 0)
(14.3215 2.58795 -2.33469e-19)
(21.9339 0.0643925 0)
(20.6017 -0.530276 -4.32541e-22)
(5.06448 -0.340449 -7.52703e-21)
(26.9251 0.704095 9.18192e-19)
(21.8274 0.0642399 0)
(17.3074 -0.523196 2.16979e-18)
(5.83308 -0.0853028 -1.25824e-20)
(20.3051 -0.346145 -4.04515e-18)
(6.40081 0.0814215 1.45439e-20)
(22.7267 1.12207 0)
(21.8698 0.0325767 1.16738e-19)
(5.05826 -0.34315 -1.2531e-21)
(28.9373 0.329606 1.08687e-20)
(5.86761 -0.0830547 7.31601e-21)
(4.92832 -0.397694 -1.65404e-21)
(11.3403 0.291367 3.234e-20)
(20.8621 7.87749 0)
(18.289 0.147645 -9.25975e-19)
(22.363 -0.176677 1.01808e-19)
(12.848 -3.84541 0)
(13.1462 -1.63077 1.37288e-19)
(20.9661 0.39456 -1.60348e-19)
(24.6717 5.0278 0)
(25.1041 -0.466714 8.34633e-19)
(6.9871 0.239101 9.26303e-21)
(10.0278 0.0894981 -4.37224e-20)
(12.5271 1.2845 -1.85743e-20)
(25.0614 1.04731 -1.27153e-19)
(22.0836 0.684068 5.39819e-19)
(24.9502 0.887374 -5.16586e-19)
(19.1093 -0.967018 -3.15049e-20)
(21.9479 0.0865674 1.00647e-19)
(16.8116 -1.43526 1.46794e-18)
(24.3439 4.20012 7.65408e-20)
(5.42105 -0.146619 0)
(25.7888 -2.15879 -9.01519e-19)
(20.4138 -0.378432 0)
(23.2345 -1.6781 -8.02297e-20)
(22.6111 -1.33619 -1.53467e-19)
(26.9199 2.56535 8.86699e-21)
(25.876 -2.06134 8.96348e-19)
(11.997 0.383025 -5.87358e-19)
(6.01254 -0.79451 9.12349e-20)
(17.2723 -0.965565 0)
(18.3769 -3.25485 2.03108e-19)
(14.7392 -0.614614 2.86393e-20)
(11.0997 -1.69444 0)
(14.5036 -0.664153 2.60465e-20)
(5.68809 -0.881549 0)
(31.019 -0.447564 2.97161e-20)
(26.0294 0.739936 -8.59935e-19)
(4.94032 -0.437392 0)
(26.1037 0.4893 -1.57433e-18)
(25.553 0.61754 -1.19145e-19)
(13.5633 -0.677126 1.08395e-20)
(22.5211 -0.403133 -2.91269e-21)
(22.1982 0.020144 -5.93851e-22)
(24.7876 2.14873 4.60993e-19)
(7.54034 -0.294842 -4.10464e-21)
(22.0411 0.181979 -5.04498e-19)
(10.7122 0.99808 -1.60709e-19)
(7.46847 -1.62169 0)
(22.3976 -0.65942 3.24218e-19)
(4.96862 -0.23617 -4.22686e-21)
(26.854 0.620028 -9.57641e-19)
(6.45451 -1.37685 2.73946e-20)
(16.7622 -1.54723 1.21232e-20)
(18.1885 0.449273 2.21376e-20)
(19.8109 4.03505 -2.80765e-19)
(8.30715 0.051748 3.63737e-20)
(28.642 2.09967 4.16299e-20)
(20.6904 -0.483232 1.8492e-19)
(8.66652 -0.530571 1.87607e-21)
(20.0556 1.70631 -3.1926e-19)
(16.7365 -1.47498 -7.09465e-21)
(23.2599 -0.204489 3.26682e-20)
(19.5689 -0.795483 -6.81677e-21)
(27.4995 -0.0786523 4.15136e-20)
(26.593 1.92889 3.54284e-20)
(24.7275 1.06786 -2.85654e-21)
(19.487 2.81054 3.60804e-19)
(21.97 -0.531085 7.14555e-19)
(21.8298 0.26445 8.96297e-19)
(23.7197 0.0450785 1.46274e-19)
(19.5527 2.30233 1.27586e-19)
(22.8658 2.34652 2.83729e-19)
(27.24 2.4217 5.22237e-19)
(16.0545 -1.20906 0)
(19.3111 -0.275878 2.47585e-19)
(8.18537 -0.0596086 0)
(21.9222 0.172793 -2.01048e-19)
(4.7244 -1.42226 1.03234e-19)
(4.87463 -0.41278 0)
(22.0258 0.0310751 0)
(25.7054 1.47663 -4.58168e-19)
(22.6082 0.989695 0)
(17.9483 -3.49461 9.70909e-20)
(26.5813 2.11066 1.83154e-20)
(26.1926 1.14622 -3.5243e-19)
(30.4504 -0.916935 0)
(22.0342 0.18451 -6.68412e-19)
(24.5907 3.17422 -6.50823e-20)
(28.3966 -0.230075 5.66589e-22)