/*--------------------------------*- C++ -*----------------------------------*\
| =========                 |                                                 |
| \\      /  F ield         | OpenFOAM: The Open Source CFD Toolbox           |
|  \\    /   O peration     | Version:  4.0                                   |
|   \\  /    A nd           | Web:      www.OpenFOAM.org                      |
|    \\/     M anipulation  |                                                 |
\*---------------------------------------------------------------------------*/
FoamFile
{
    version     2.0;
    format      ascii;
    class       volScalarField;
    location    "759";
    object      nut;
}
// * * * * * * * * * * * * * * * * * * * * * * * * * * * * * * * * * * * * * //

dimensions      [0 2 -1 0 0 0 0];

internalField   nonuniform List<scalar> 
14558
(
0.0303101
0.0173047
0.029201
0.016729
0.0762171
0.0190673
0.0104034
0.00722554
0.00364683
0.0099154
0.0271243
0.0109481
0.105207
0.00478319
0.00856797
0.0148312
0.0169734
0.027415
0.00771783
0.00142603
0.0149855
0.00383437
0.116883
0.014849
0.0262629
0.113344
0.0200043
0.0154659
0.0111873
0.00308599
0.00187555
0.0248455
0.0776745
0.0134032
0.0257305
0.0457472
0.114719
0.0076933
0.0492064
0.00404389
0.0206372
0.00293815
0.020456
0.00548407
0.0195974
0.019205
0.114888
0.0059131
0.00176545
0.00386832
0.0249023
0.00215392
0.00179461
0.0471753
0.00188142
0.0486933
0.0110796
0.0105436
0.0518463
0.00431999
0.0256244
0.0107745
0.0153244
0.0105425
0.0194692
0.070243
0.104946
0.00428169
0.00322361
0.0748276
0.00317704
0.0241109
0.0280378
0.0108302
0.00607007
0.0413422
0.00345722
0.0189482
0.0526337
0.00413435
0.0161331
0.0255887
0.00727577
0.00438957
0.00448774
0.0135243
0.010464
0.0021633
0.0167617
0.0279148
0.0145557
0.00263981
0.0111076
0.0273277
0.0165157
0.00125644
0.0643113
0.109351
0.109885
0.00736888
0.0118963
0.0196928
0.0785354
0.0196613
0.0304797
0.0944109
0.010091
0.00347876
0.0755646
0.111872
0.0145095
0.0240036
0.126948
0.120117
0.0195096
0.00799224
0.0185375
0.0456275
0.00244528
0.00684091
0.029191
0.019272
0.0963831
0.0155904
0.00931874
0.019215
0.0221681
0.00441197
0.0277923
0.0147084
0.0171164
0.0568324
0.00491088
0.076523
0.118127
0.00115923
0.00495586
0.027103
0.0178925
0.0173592
0.0511802
0.0327077
0.0061806
0.0156785
0.0224361
0.0551691
0.0611591
0.00247875
0.0653424
0.095038
0.0644387
0.0084655
0.0392757
0.0204528
0.00157153
0.118109
0.0157819
0.00214968
0.0706522
0.00611472
0.0208532
0.0244655
0.0227201
0.0604989
0.0244316
0.00198113
0.111406
0.00575563
0.0653948
0.0627298
0.134931
0.00713074
0.00411468
0.000489958
0.00332991
0.0041723
0.0201666
0.00253783
0.0934766
0.0199029
0.0553939
0.10936
0.0189199
0.0421625
0.0640027
0.000546345
0.00484035
0.0345311
0.00247866
0.0263042
0.000861674
0.0589972
0.00339581
0.10597
0.00238233
0.00488472
0.0019857
0.0728592
0.00340385
0.00251506
0.01665
0.105925
0.00456131
0.0688761
0.0433404
0.0024836
0.0802935
0.0256037
0.0252799
0.027687
0.0283592
0.101165
0.111895
0.0145862
0.0690738
0.098009
0.0566637
0.00281464
0.000835052
0.00315275
0.0189174
0.0420683
0.0285136
0.0300855
0.0849762
0.0256222
0.0105937
0.00217168
0.00370896
0.127804
0.0855603
0.0639053
0.0463289
0.0208373
0.0238384
0.00655317
0.0188288
0.00176799
0.0374007
0.0108236
0.00517544
0.0719231
0.0156738
0.00275621
0.0108541
0.00754841
0.0970786
0.0153234
0.00510774
0.00966872
0.00244514
0.111137
0.102973
0.0319977
0.00236865
0.00636115
0.0637808
0.00515399
0.113523
0.134508
0.135477
0.0170446
0.0167668
0.0357247
0.0102311
0.0176667
0.0144047
0.00563323
0.00263907
0.00684908
0.0416266
0.0676376
0.00940701
0.00222035
0.121988
0.00495465
0.00442308
0.00451882
0.00450956
0.0162126
0.0930369
0.0493097
0.110309
0.0420506
0.0455955
0.0404956
0.0235495
0.0174259
0.0406808
0.00338504
0.0236001
0.12158
0.0669277
0.00507594
0.00132026
0.046616
0.00502948
0.0212693
0.0126915
0.0134169
0.00460278
0.00321814
0.00432906
0.00272348
0.0815827
0.0407003
0.0590367
0.110115
0.0605344
0.0401765
0.0289102
0.0334039
0.0295158
0.106629
0.00214763
0.0184267
0.0644902
0.0842779
0.00945673
0.0693013
0.00118425
0.0080392
0.00666221
0.000563137
0.00579942
0.0370035
0.0220274
0.00264803
0.109661
0.0284206
0.106875
0.00299675
0.000330314
0.0161
0.00739269
0.0184198
0.0182014
0.0207128
0.0141795
0.01451
0.00754894
0.0598029
0.0720765
0.100637
0.0177245
0.00446027
0.013664
0.00967365
0.0272896
0.00263034
0.038895
0.00333328
0.00339599
0.0115387
0.00724112
0.0695543
0.0486155
0.0193355
0.00662637
0.00636116
0.120568
0.00225189
0.0678863
0.0506159
0.00301192
0.135748
0.0513678
0.0164927
0.00231352
0.00794294
0.0536352
0.0994394
0.0267126
0.0293862
0.0219073
0.0625218
0.0187872
0.0157455
0.0296472
0.0348028
0.0140303
0.0319161
0.0587604
0.0866585
0.125447
0.0127557
0.0292965
0.0467814
0.00322182
0.0158714
0.0641888
0.025075
0.0712553
0.00308413
0.0148801
0.0269562
0.0554566
0.00449693
0.00815591
0.0910849
0.00509592
0.00481204
0.119477
0.0207238
0.0236292
0.00140047
0.00699519
0.0214918
0.0376486
0.0220567
0.0957052
0.00230058
0.0107454
0.0682746
0.0322446
0.0096207
0.0726828
0.0165865
0.0794975
0.0305324
0.00435411
0.00569022
0.0262096
0.0256861
0.0111316
0.0326462
0.0243735
0.0202356
0.0200723
0.00818794
0.0591911
0.0409197
0.0206495
0.00231186
0.0255935
0.0964527
0.0692012
0.0707977
0.072806
0.052461
0.0316766
0.0131314
0.00345546
0.0219264
0.00841511
0.0719237
0.0993932
0.0927227
0.0576797
0.00738213
0.0167175
0.00415784
0.00746045
0.0645454
0.0428472
0.0210947
0.00879974
0.0174185
0.00731905
0.0723262
0.0344505
0.0205499
0.0405385
0.0281592
0.0171835
0.00130211
0.0679765
0.00360486
0.094406
0.00269015
0.0307021
0.00729863
0.0352412
0.0246369
0.0701798
0.116422
0.0232718
0.00709075
0.0828428
0.0687725
0.00827463
0.0188801
0.0209263
0.0323518
0.00351311
0.0138085
0.000408132
0.00215311
0.0234808
0.0268198
0.00259666
0.00316019
0.0343729
0.0107167
0.0608025
0.0045951
0.0579969
0.00503284
0.0415929
0.0140727
0.00205056
0.0129406
0.0151562
0.0456081
0.0394294
0.00707106
0.0255471
0.097582
0.0713221
0.0361589
0.016619
0.021306
0.00804785
0.0421141
0.102778
0.0497731
0.0863045
0.0144244
0.0339238
0.0255184
0.132722
0.0239454
0.00460358
0.0452474
0.0017706
0.0143212
0.0042943
0.00473892
0.0208651
0.00418187
0.086048
0.0313759
0.040457
0.0428775
0.0309924
0.00637203
0.0133183
0.0895828
0.0365808
0.000773898
0.00426083
0.00172828
0.0126975
0.0187483
0.0027372
0.00579617
0.00746975
0.1037
0.00417123
0.116439
0.0726255
0.00573886
0.00524298
0.0407157
0.0243858
0.0164052
0.0530752
0.0174733
0.00219949
0.0880042
0.0141933
0.00848323
0.00650447
0.0670222
0.0149238
0.0149743
0.0338493
0.0505778
0.0278908
0.0547509
0.134511
0.00335644
0.0297821
0.0709518
0.0342843
0.0338454
0.0187383
0.0835027
0.0374647
0.0185358
0.0701511
0.0890932
0.0126275
0.0279678
0.0505061
0.0883734
0.00907879
0.015397
0.01141
0.090451
0.0140376
0.022134
0.0102438
0.0210476
0.0178217
0.0488867
0.0198797
0.0252624
0.0300194
0.0123055
0.00148912
0.00284991
0.0147406
0.00658197
0.0391982
0.0136691
0.00446767
0.123856
0.0343024
0.10036
0.0182424
0.00278556
0.0188582
0.0206133
0.0333571
0.0862927
0.00768707
0.0241706
0.014914
0.00401918
0.0323362
0.00291366
0.0951991
0.0906688
0.0670498
0.00650845
0.0499156
0.0303867
0.0114219
0.00103356
0.0145168
0.027427
0.0106502
0.0597291
0.00874343
0.0204536
0.137376
0.0851554
0.00272511
0.0115676
0.00220522
0.00904575
0.0171387
0.00189713
0.0672765
0.030612
0.0250549
0.0402808
0.124784
0.0144906
0.0879171
0.00771854
0.0209706
0.00428981
0.00343655
0.00877837
0.00144567
0.0246272
0.00292738
0.0440978
0.0597235
0.0652582
0.000782337
0.106783
0.039607
0.050455
0.0316472
0.134724
0.00351127
0.00285292
0.0646015
0.0107944
0.00853651
0.0915977
0.00518738
0.00708648
0.024312
0.0166101
0.0431407
0.00202423
0.00489036
0.0051308
0.00254369
0.0649819
0.094136
4.67482e-05
0.0168563
0.0113268
0.0535246
0.00105211
0.000667708
0.0267887
0.00220692
0.00442798
0.00333302
0.0358912
0.0239735
0.116857
0.0966073
0.00273956
0.0550711
0.0271636
0.000534467
0.0620634
0.0760818
0.00762213
0.0597908
0.00817611
0.0293375
0.0251902
0.0884787
0.0134808
0.0241145
0.010114
0.00491996
0.014666
0.0599903
0.020496
0.0142902
0.0204622
0.0062005
0.00371638
0.0973516
0.00769348
0.0189711
0.0573888
0.0068316
0.0126453
0.00897533
0.0787245
0.00986063
0.00390791
0.0231567
0.0038582
0.058085
0.00966411
0.059571
0.0747179
0.00440861
0.00216393
0.0503744
0.0178325
0.00373764
0.0213562
0.0397736
0.0254561
0.0834234
0.0299057
0.0120062
0.00302832
0.0118596
0.0256419
0.0261765
0.00554722
0.0104189
0.00282528
0.05459
0.0277783
0.0483195
0.0272456
0.063485
0.0100272
0.0301018
0.02692
0.00661069
0.00204505
0.0717331
0.0151679
0.0818645
0.00828525
0.018539
0.041709
0.0033432
0.0709889
0.0188095
0.0138934
0.0285033
0.0164882
0.00318132
0.117542
0.0599971
0.135227
0.0889204
0.00448421
0.0351227
0.0112454
0.0242929
0.0179325
0.011849
0.0190236
0.0260009
0.0212132
0.021658
0.00440968
0.121361
0.00483079
0.0906909
0.0205892
0.0217388
0.00570553
0.0206336
0.0300692
0.00970402
0.00872712
0.0194808
0.0219755
0.0158754
0.0105047
0.000273181
0.0285079
0.003433
0.0351481
0.0149646
0.00445859
0.0191233
0.0256544
0.000378447
0.0217787
0.107638
0.0588549
0.00220259
0.116807
0.00845885
0.0055419
0.012449
0.0296292
0.0203151
0.00484575
0.0229506
0.0116227
0.0424753
0.00471497
0.0591774
0.0188317
0.0212961
0.000369387
0.00223259
0.0101179
0.00318895
0.00933093
0.015491
0.00126103
0.00258616
0.0208383
0.0219777
0.0060861
0.0100609
0.00987677
0.0924068
0.0873421
0.00959186
0.02971
0.00194199
0.0193001
0.00269369
0.0199663
0.000402705
0.0157954
0.0686282
0.0241544
0.00217252
0.0660882
0.00871955
0.0774377
0.00566877
0.00608852
0.0048826
0.00858015
0.00954437
0.0654173
0.102499
0.0222842
0.0783782
0.00693071
0.0143128
0.00740039
0.00548234
0.0108148
0.042934
0.0155774
0.0764466
0.0203333
0.118084
0.0657786
0.00494204
0.00301046
0.0191094
0.126903
0.00437251
0.0165701
0.0190501
0.0774563
0.0148325
0.0198589
0.0363016
0.00560352
0.056376
0.00296321
0.0217102
0.00287497
0.0179179
0.00429683
0.0846149
0.080758
0.0101748
0.00819238
0.11697
0.073257
0.00239987
0.0199354
0.105465
0.0142133
0.00271554
0.00706378
0.00314245
0.065851
0.103572
0.00236585
0.018707
0.0029484
0.00283353
0.00827568
0.0128868
0.00924961
0.0230048
0.0092097
0.00650424
0.0864375
0.0165222
0.015226
0.00474366
0.00615941
0.00809718
0.0301041
0.0263396
0.0352204
0.0558412
0.122879
0.00548547
0.0383422
0.00303163
0.030764
0.0726717
0.0462272
0.0358145
0.0274854
0.0300942
0.00220178
0.00228901
0.0195581
0.0218803
0.0158569
0.00208916
0.0163836
0.00231389
0.0124662
0.0356745
0.000450487
0.0260433
0.0321801
0.0147488
0.04247
0.0231989
0.0279143
0.0051332
0.0964781
0.00457374
0.00358819
0.0549406
0.00228323
0.0194869
0.00279102
0.0179605
0.0215243
0.00230199
0.00478564
0.0242985
0.0748927
0.00690523
0.0642514
0.0180568
0.00645804
0.0212288
0.019026
0.0255602
0.024579
0.0163454
0.0687362
0.113745
0.0048561
0.0544586
0.0680646
0.0272993
0.00567906
0.0607063
0.00523406
0.121542
0.000396487
0.00255225
0.117392
0.0302562
0.067167
0.0186825
0.0257277
0.0350427
0.0146162
0.099653
0.0514459
0.019216
0.0635917
0.105075
0.00156407
0.00621249
0.0589984
0.0700744
0.0543648
0.0241468
0.00864894
0.0853041
0.0239868
0.0588827
0.0175107
0.0373359
0.0554866
0.002775
0.0318614
0.0337624
0.00788089
0.027507
0.0320489
0.11334
0.0200594
0.0138911
0.00432459
0.00385015
0.0626451
0.000553675
0.0243466
0.0208255
0.0155084
0.0312367
0.0601964
0.0118586
0.000949688
0.0085406
0.00534949
0.0249353
0.0511589
0.0376471
0.0574709
0.00644668
0.00872029
0.0136334
0.00628906
0.0508944
0.0762576
0.0486987
0.0122623
0.0174938
0.110884
0.0327055
0.0220804
0.0129501
0.00279301
0.022931
0.0301601
0.0272771
0.130149
0.0996362
0.0313602
0.00140503
0.00903518
0.00709493
0.00739222
0.109044
0.00323972
0.00284605
0.0226995
0.0423076
0.0791218
0.00372432
0.00703752
0.00647394
0.0206786
0.0297342
0.0191668
0.0262503
0.00439898
0.0236217
0.0349574
0.0442579
0.0563782
0.00352002
0.102138
0.0939443
0.020396
0.109023
0.127835
0.00390611
0.0182196
0.0145307
0.017684
0.0065546
0.036068
0.00197248
0.0205375
0.0582739
0.0217641
0.00693174
0.084049
0.00218966
0.0874313
0.0250132
0.041982
0.0119192
0.0729253
0.0371103
0.00719462
0.119295
0.00103472
0.0165345
0.0108928
0.0102405
0.136132
0.0151123
0.0165701
0.0208118
0.0144451
0.0158165
0.0253456
0.0863242
0.00788072
0.00825841
0.000886294
0.0540986
0.0328624
0.0075898
0.00812513
0.0848304
0.00497841
0.00732722
0.0337972
0.0188023
0.106177
0.00285444
0.045611
0.000122368
0.0303298
0.00404812
0.0030528
0.0068564
0.00229875
0.0103329
0.0268518
0.0109256
0.0786489
0.000846506
0.036397
0.117701
0.00275645
0.0283011
0.0479153
0.0646846
0.00426473
0.00334092
0.00148914
0.0347643
0.0042918
0.0746455
0.00699731
0.00411652
0.00555451
0.0120232
0.00485144
0.00314903
0.0560032
0.023452
0.0408264
0.0276986
0.12318
0.0775987
0.133628
0.00350545
0.000610561
0.00678112
0.13493
0.0662004
0.00328239
0.0371606
0.00330507
0.00234233
0.00969501
0.0110538
0.0101977
0.005284
0.0258523
0.0210809
0.00144964
0.00107665
0.0132724
0.00369162
0.0818785
0.00144283
0.0795353
0.0686167
0.0183404
0.00480473
0.0272957
0.00386357
0.0557465
0.0260531
0.0210335
0.0373683
0.053613
0.0040303
0.0135734
0.00512438
0.0036118
0.0221884
0.0159704
0.0242041
0.111005
0.0109595
0.00478468
0.00352981
0.0624994
0.0669705
0.00318301
0.0111297
0.0566899
0.0146734
0.00420028
0.00703819
0.046409
0.00846641
0.0177354
0.00329932
0.0456992
0.0376871
0.0423394
0.0668862
0.00736026
0.00164854
0.00797221
0.0125066
0.00363553
0.106516
0.00347936
0.00403854
0.00850497
0.0159858
0.00186554
0.00746773
0.00409299
0.0204507
0.0066228
0.00347665
0.0248479
0.0124697
0.0358785
0.0354772
0.0045649
0.0559114
0.0225819
0.019178
0.00159086
0.121428
0.0342364
0.00120913
0.00859846
0.00364151
0.0403465
0.0604336
0.0190173
0.0318939
0.0826364
0.011551
0.0315509
0.00720774
0.0560241
0.0143127
0.0172258
0.00655023
0.0892472
0.00386855
0.00394402
0.0955089
0.0138668
0.00405342
0.0861689
0.0218467
0.0113826
0.0239994
0.0323625
0.117307
0.00223864
0.0346781
0.00344165
0.0152351
0.0166097
0.0567438
0.00224712
0.00237506
0.0236754
0.0176751
0.0487557
0.119313
0.00929818
0.0140232
0.0649428
0.0109445
0.00252072
0.00517477
0.0019752
0.00344391
0.0381317
0.0300756
0.137739
0.00241984
0.00263541
0.0745285
0.0521563
0.00798576
0.0185948
0.00247616
0.0782024
0.0476233
0.0428053
0.112157
0.0156043
0.0298755
0.0417622
0.0794526
0.0675859
0.00462484
0.000667323
0.00150326
0.062066
0.0879209
0.00467428
0.106719
0.0765359
0.0177759
0.0940031
0.00163982
0.00850776
0.0464972
0.0651796
0.131714
0.00256789
0.0292962
0.0277441
0.00311246
0.0125824
0.0121415
0.00289368
0.0412291
0.0165474
0.0740424
0.128779
0.0239768
0.0380058
0.0464272
0.00446886
0.0220941
0.00781682
0.00817621
0.0159441
0.00608204
0.00556682
0.0163079
0.00344716
0.0374255
0.00252748
0.0825807
0.0651364
0.0113378
0.0168882
0.0054603
0.0263727
0.0345115
5.12649e-05
0.0218156
0.123058
0.0218694
0.0202736
0.0265645
0.0331255
0.00725945
0.0499698
0.0378522
0.00783996
0.0382929
0.00475193
0.0299185
0.0748265
0.0714188
0.0986485
0.0805089
0.00779312
0.0214296
0.0320922
0.0192274
0.00668951
0.0132173
0.0261543
0.0332447
0.0292027
0.0314239
0.0299436
0.0781995
0.00336398
0.0183659
0.0056851
0.0359001
0.00675386
0.0666413
0.00458083
0.00446263
0.0285842
0.0527225
0.0140908
0.00456945
0.0129154
0.0145372
0.0121114
0.0570698
0.0135821
0.0185197
0.00229907
0.00421284
0.0405801
0.000417734
0.0767344
0.00507274
0.0228565
0.0141627
0.0402055
0.134746
0.00122718
0.00578376
0.00647443
0.00621854
0.0048076
0.00917717
0.0235059
0.053199
0.0273486
0.0204765
0.0120371
0.0974073
0.0529329
0.0194016
0.0372006
0.0639192
0.0193158
0.0380241
0.0607201
0.0162706
0.131856
0.00498609
0.00200548
0.0034599
0.0114106
0.0499056
0.122944
0.00706076
0.0219343
0.012643
0.00735854
0.0494833
0.00470807
0.0387522
0.0176537
0.015631
0.00383318
0.00165147
0.0149275
0.0532871
0.0231961
0.0010356
1.65791e-07
0.00224191
0.0158291
0.00320236
0.00291983
0.0104493
0.000419435
0.00840487
0.00067151
0.0331367
0.0885676
0.067353
0.0255026
0.0494092
0.0550507
0.0121136
0.00834995
0.00772239
0.0217457
0.0146042
0.00703467
0.021474
0.0372839
0.0279402
0.0122483
0.0977698
0.0472109
0.0717217
0.0562724
0.00715125
0.00520304
0.075317
0.00960589
0.0139735
0.000711893
0.0144084
0.0906939
0.00846865
0.0343874
0.00754515
0.0204844
0.0206858
0.0579184
0.00389616
0.00613835
0.0067249
0.0179354
0.0302502
0.00350335
0.00544872
0.00844211
0.00432146
0.00231472
0.0483643
0.00203498
0.0319349
0.0446341
0.0205778
0.0166932
0.00296851
0.0131958
0.00107854
0.0443785
0.0152379
0.0800353
0.0448885
0.0139387
0.0333211
0.0594507
0.052118
0.0183224
0.00541424
0.0163917
0.0530896
0.0110001
0.00238862
0.0044276
0.00369296
0.00998632
0.115806
0.0185507
1.20146e-06
0.00138023
0.00737011
0.0659199
0.0192781
0.00501737
0.000864818
0.0011754
0.0186717
0.0167682
0.0124822
0.0169058
0.12263
0.0136383
0.00202176
0.0785909
0.000960966
0.00706208
0.124266
0.117521
0.0131338
0.100681
0.0520558
0.019875
0.0761772
0.00867693
0.025595
0.0126515
0.0143482
0.0287546
0.00536479
0.00345716
0.00231197
0.0116424
0.0100653
0.00905556
0.0163606
0.0454546
0.00261614
0.035642
0.0488003
0.057473
0.00326305
0.0960787
0.115813
0.0139496
0.0318359
0.00162708
0.0553284
0.00177057
0.00430085
0.0126352
0.0206764
0.00220862
0.024597
0.0360809
0.103729
0.010749
0.0401941
0.0122147
0.0208489
0.0128325
0.00135201
0.0445591
0.0235903
0.0215594
0.0210864
0.015416
0.112358
0.0447325
0.124584
0.0220225
0.005882
0.00629683
0.0159398
0.00360567
0.00704008
0.01891
0.0295604
0.127987
0.00262148
0.0201515
0.0102213
0.0162145
0.00150427
0.019467
0.00494942
0.00835853
0.00435754
0.112274
0.00487682
0.034639
0.112953
0.0422992
0.0636102
0.033084
0.00368411
0.019566
0.0718509
0.0157729
0.0211957
0.0254159
0.0118504
0.0199566
0.0532881
0.0374849
0.0157058
0.0182704
0.00312462
0.00806019
0.0130928
0.0707197
0.0616924
0.0342259
0.0051695
0.00453641
0.0817851
0.0138102
0.000299655
0.032009
0.00667294
0.0162346
0.0493478
0.00742485
0.00892375
0.025299
0.00633287
0.0681334
0.0204393
0.114609
0.0564195
0.104788
0.0230573
0.00299669
0.00589281
0.00524335
0.0238313
0.11965
0.0217437
0.00330045
0.0645749
0.0253307
0.023012
0.0252045
0.0594446
0.0258528
0.0381454
0.053837
0.0180514
0.00236571
0.0043657
0.0289016
0.00926794
0.0105485
0.0190581
0.0485475
0.0848346
0.0280759
0.0663413
0.0367712
0.00723956
0.0964635
0.0699132
0.017854
0.0211973
0.00876075
0.000266112
0.0091866
0.0154888
0.00867115
0.0120527
0.00107724
0.00443809
0.016208
0.0172173
0.0215582
0.00318101
0.0278675
0.000887427
0.0173944
0.095148
0.00243835
0.0256643
0.0566524
0.0420306
0.00278606
0.0691424
0.0719394
0.0169194
0.00189618
0.00218018
0.00933288
0.0198631
0.0347854
0.0297374
0.00087289
0.0018762
0.0025621
0.0943506
0.0311288
0.0112804
0.0133821
0.00417258
0.0642718
0.0252725
0.018147
0.0194927
0.00604077
0.00518284
0.0276879
0.0250207
0.0263192
0.023787
0.136145
0.00126802
0.0167452
0.0609365
0.0163056
0.0271308
0.0281614
0.0759362
0.0263412
0.00557004
0.116273
0.0239984
0.0198571
0.00138321
0.0072005
0.0425955
0.0130126
0.00916444
0.0742681
0.0125633
0.116205
0.0590996
0.0542902
0.00285902
0.0805242
0.00360999
0.00585072
0.071215
0.123001
0.0128695
0.0515126
0.0173398
0.0120061
0.000357575
0.00338048
0.00866829
0.000353381
0.00272312
0.0171357
0.0188626
0.0249452
0.00989031
0.0770714
0.0208818
0.0205619
0.0356328
0.033205
0.0148671
0.109543
0.00940527
0.132618
0.00848123
0.0126541
0.0217257
0.0202091
0.022753
0.0933601
0.00868771
0.00845911
0.0516788
0.00979962
0.0133716
0.0316806
0.00215965
0.0193828
0.00774221
0.0026118
0.00351444
0.00245699
0.0848805
0.0312295
0.0271684
0.00300239
0.0255078
0.0168329
0.037269
0.00523186
0.0020235
0.0160335
0.047442
0.00173377
0.00379022
0.00427942
0.0699699
0.0276869
0.0523858
0.0137896
0.0198142
0.00222408
0.0785534
0.00341176
0.019952
0.004685
0.0173584
0.0849996
0.0163929
0.00913398
0.123681
0.00424256
0.137632
0.00247926
0.00682632
0.0198493
0.085805
0.000475963
0.00405929
0.0027671
0.115595
0.0200542
0.0051317
0.0209837
0.00989045
0.00275894
0.0417593
0.00555455
0.0139205
0.0154434
0.0107268
0.00293276
0.00735444
0.0123592
0.00297037
0.00287097
0.0134283
0.00397403
0.00594979
0.00236094
0.0128868
0.0437258
0.00440898
0.0205964
0.132151
0.0437125
0.115056
0.00936435
0.0153386
0.0215887
0.0029295
0.038712
0.0270366
0.106182
0.0104995
0.107589
0.0960339
0.00407411
0.0578154
0.00553933
0.0647323
0.000768121
0.0063055
0.00349011
0.00355168
0.00961803
0.00344964
0.122591
0.0700147
0.00722329
0.0154761
0.0119992
0.0239586
0.0564659
0.0231507
0.00365288
0.0411117
0.0077389
0.000736427
0.0197157
0.00449022
0.0136128
0.00922335
0.070318
0.0240358
0.00355137
0.080861
0.00264454
0.0951848
0.00722437
0.00373262
0.0603136
0.00216933
0.0219467
0.0166849
0.0205993
0.0497198
0.0320163
0.0607705
0.0241876
0.0457126
0.0183541
0.00938791
0.0405332
0.000705336
0.00576053
0.062413
0.124753
0.00648786
0.0144588
0.00910826
0.129605
0.0225356
0.0111416
0.0203129
0.00862668
0.00444164
0.0224507
0.105549
0.135831
0.0176075
0.107884
0.0888318
0.0406064
0.00250947
0.00494571
0.00241607
0.0465699
0.0159946
0.0193595
0.0145726
0.0118185
0.101698
0.0496357
0.0179483
0.00073136
0.00564462
0.0114282
0.0125859
0.0201634
0.0168775
0.0150331
0.0629423
0.0334143
0.0137672
0.0714065
0.0188534
0.124642
0.00643628
0.072421
0.00552728
0.0128068
0.0058294
0.0648919
0.123573
0.0218024
0.110522
0.0237218
0.0031114
0.0979129
0.00959592
0.0208122
0.00189192
0.0145653
0.00107849
0.0331985
0.0202152
0.115335
0.00668863
0.0626394
0.0657558
0.00983254
0.0168736
0.0876122
0.0193874
0.00882915
0.025039
0.110028
0.0430525
0.0105868
0.0150945
0.0115927
0.054159
0.0279232
0.0151416
0.00293006
0.00636708
0.0326498
0.0308846
0.00160417
0.00770739
0.00900432
0.00200143
0.0198066
0.00506831
0.0119646
0.0870786
0.0167236
0.0150329
0.0107907
0.119574
0.0331325
0.138928
0.00528459
0.0202039
0.0183881
0.0323536
0.0214801
0.113625
0.0721912
0.0185635
0.0497419
0.0502338
0.00290696
0.0236711
0.0121202
0.0215514
0.00604525
0.0394435
0.0222227
0.0221118
0.00153307
0.0587753
0.0352585
0.04636
0.0132893
0.0509792
0.0316206
0.0304365
9.28689e-06
0.0672772
0.0884371
0.00356824
0.0147782
0.00648656
0.0260626
0.119394
0.0208495
0.00118471
0.00527059
0.0371148
0.00496938
0.00951238
0.00192943
0.0386446
0.00129361
0.0176346
0.0419654
0.0204188
0.00417515
0.0121965
0.010929
0.00287752
0.0249962
0.0448012
0.0112423
0.0170638
0.0204768
0.115708
0.0150452
0.0152349
0.00462561
0.0253762
0.073308
0.0201463
0.0196291
0.0211836
0.0447008
0.0297334
0.0150887
0.0946454
0.00504548
0.00109047
0.00895249
0.00310276
0.00327606
0.0161938
0.0144067
0.00695417
0.0400948
0.00280996
0.0096072
0.015224
0.0156248
0.011528
0.0595492
0.0172556
0.0270938
0.00915992
0.00626611
0.0105004
0.0237393
0.0223994
0.0819669
0.111362
0.0489608
0.00330897
0.00970313
0.0215751
0.00105391
0.00466426
0.118193
0.0295275
0.0248538
0.0137384
0.0736065
0.0198686
0.0184941
0.00371773
0.0810604
0.0422979
0.0400279
0.0169469
0.0010643
0.00264927
0.0108769
0.0311934
0.00277313
0.0274985
0.074361
0.00375684
0.0759635
0.0226186
0.0146368
0.127951
0.00133918
0.117112
0.0814295
0.0657719
0.0155044
0.00770331
0.00823491
0.00142884
0.00349612
0.0183136
0.00226758
0.00685866
0.0403801
0.0347035
0.00336546
0.000716418
0.0146056
0.031038
0.00472498
0.0171735
0.00584514
0.0589833
0.0116993
0.026573
0.00839139
0.0025425
0.0242537
0.0185978
0.0667136
0.00719557
0.0210995
0.0803035
0.00879535
0.0401621
0.00364631
0.00863822
0.0210158
0.0149157
0.0174543
0.0177007
0.0162102
0.00415907
0.0212992
0.0579016
0.00105812
0.0312195
0.0069819
0.0505491
0.00609035
0.00149691
0.00950693
0.0556925
0.0122411
0.00220771
0.0139681
0.116087
0.00279398
0.0101641
0.00113639
0.0920534
0.00366581
0.00548537
0.0197574
0.00992407
0.00400888
0.0937676
0.0313467
0.0143265
0.00755995
0.0939324
0.078397
0.00457073
0.00876363
0.0220184
0.00984311
0.004747
0.00715099
0.00785393
0.0542027
0.00117565
0.0123237
0.00349199
0.0226114
0.00924866
0.00333907
0.0116859
0.00195663
0.0628558
0.00461986
0.13768
0.00505463
0.0704545
0.00860893
0.0628242
0.00464739
0.00598805
0.00236473
0.00838713
0.00715614
0.0597283
0.0102055
0.0321957
0.0225473
0.015655
0.0187817
0.0131177
0.0313374
0.0024245
0.0306157
0.000908953
0.0644479
0.0554793
0.00582742
0.0271292
0.00525647
0.0270241
0.0160251
0.0114228
0.00231783
0.0110686
0.0088544
0.0226299
0.0156689
0.0227838
0.00248216
0.127651
0.0345235
0.0432324
0.0113186
0.0176044
0.00427568
0.0180953
0.0389162
0.00509988
0.00317747
0.0142995
0.0984161
0.0260584
0.0744968
0.01351
0.0555777
0.00243325
0.069832
0.00898026
0.0411325
0.129501
0.0269538
0.0172656
0.0782627
0.00204307
0.0701251
0.0478488
0.00790804
0.0207285
0.0393432
0.0274722
0.0946298
0.00136983
0.000854464
0.0153487
0.112844
0.0104903
0.00145962
0.133502
0.00170201
0.113848
0.0286013
0.073728
0.0237172
0.00960063
0.0314662
0.0198168
0.0111115
0.051766
0.0981079
0.0187073
0.0203562
0.00908503
0.138302
0.0803789
0.00629322
0.0593234
0.095719
0.00927116
0.0948179
0.00041304
0.014271
0.0179896
0.0221445
0.0109223
0.00936962
0.00804566
0.0123059
0.0735811
0.0610584
0.0126176
0.000107392
0.0122372
0.0626021
0.00202084
0.0188734
0.0435787
0.111066
0.0333168
0.0169873
0.00464806
0.0443726
0.0154091
0.0947986
0.00124979
0.00992812
0.00721715
0.0299182
0.000726274
0.086624
0.0253461
0.00356792
0.101345
0.0190524
0.00277773
0.0200578
0.003422
0.0193214
0.00486456
0.000960205
0.0127816
0.0501771
0.00295072
0.00595246
0.0210355
0.00631877
0.00655102
0.0249112
0.0651557
0.0380434
0.0451216
0.00751976
0.00369895
0.0110069
0.092121
0.00844992
0.0173484
0.0757064
0.00334172
0.00948688
0.0164329
0.0175878
0.0139059
0.00256349
0.00328724
0.0823815
0.0867087
0.000952202
0.0489169
0.000758653
0.0209931
0.00633065
0.0316005
0.0749912
0.0232208
0.00967652
0.0327601
0.0915518
0.0213906
0.0348709
0.0679814
0.0937469
0.0135562
0.0141053
0.0228387
0.0257986
0.00894555
0.0058745
0.0221755
0.0265439
0.0191151
0.129318
0.00290533
0.0150454
0.0516889
0.0122907
0.0233582
0.0596385
0.0249249
0.0895216
0.00650806
0.0364838
0.0140696
0.0260573
0.0103317
0.00949635
0.0171338
0.0505468
0.00661513
0.0074529
0.0649794
0.0928258
0.00506513
0.00216667
0.114112
0.0715928
0.0198449
0.0143136
0.00936298
0.00230298
0.00137084
0.0170348
0.0639793
0.105389
0.00885112
0.0182787
0.0199045
0.022009
0.0908236
0.00617866
0.0108922
0.0212446
0.0179888
0.0346523
0.00327781
0.0303937
0.0282603
0.00477004
0.00750425
0.0252509
0.000756089
0.00965795
0.00226039
1.38407e-06
0.03751
0.00413597
0.0622984
0.00910831
0.00398353
0.0288632
0.0143256
0.00172641
0.0577497
0.0693426
0.0133553
0.126016
0.0668786
0.0624715
0.0126327
0.0303646
0.00282998
0.00275767
0.0025377
0.0254063
7.4691e-05
0.0195198
0.00423421
0.013965
0.0667833
0.00326093
0.024792
0.0412295
0.0243435
0.0221423
0.0343903
0.111886
0.00356414
0.0219101
0.00925958
0.0314904
0.030374
0.0336309
0.0215197
0.00320166
0.0827481
0.0280684
0.0115912
0.117336
0.0181116
0.00607795
0.00767016
0.00320915
0.018267
0.0188471
0.0150919
0.0201813
0.0318739
0.0630033
0.00999005
0.0132593
0.0123586
0.0201725
0.0108071
0.00722799
0.0165988
0.00124378
0.0810901
0.00445467
0.00321253
0.0076963
0.0856416
0.0298998
0.0132306
0.00455377
0.00608476
0.00323125
0.00582259
0.00616048
0.00690384
0.00372834
0.0157759
0.0256029
0.0244174
0.0201525
0.00427335
0.0386983
0.00187834
0.00926009
0.0171072
0.0289495
0.0367427
0.00282222
0.019326
0.003008
0.0055962
0.00717661
4.34616e-05
0.0339169
0.0160734
0.0005536
0.0510607
0.00419033
0.00756418
0.0182956
0.00188501
0.0141424
0.00683588
0.0408532
0.0210745
0.0134389
0.00951637
0.00116701
0.00811217
0.0936411
0.0215903
0.0556818
0.0203292
0.00406865
0.00733551
0.095074
0.0140583
0.00891325
0.0256895
0.0241644
0.0238971
0.00693587
0.002408
0.0384823
0.135704
0.00514988
0.00710649
0.0583323
0.0203281
0.00476878
0.0776115
0.0365029
0.00775705
0.0282252
0.0331519
0.0470823
0.0119258
0.0222961
0.017427
0.000858884
0.0562102
0.00689157
0.0128053
0.00805975
0.040668
0.0541511
0.00273149
0.00251215
0.024261
0.0183055
0.0197775
0.00362225
0.00351539
0.0202374
0.021221
0.00464118
0.126184
0.00539003
0.0116577
0.0366603
0.0170002
0.00484339
0.0962855
0.000551773
0.0220359
0.0207962
0.00455188
0.0285151
0.0360339
0.0424571
0.0567862
0.00521791
0.0173654
0.0558739
0.031744
0.00339179
0.035418
0.00943301
0.0844146
0.0371046
0.0176225
0.123425
0.00634867
0.0206127
0.0270689
0.136338
0.0415465
0.0240339
0.118213
0.0306024
0.0171872
0.000701588
0.118984
0.0205612
0.114814
2.71753e-05
0.116687
0.00373774
0.00441526
0.00433238
0.00410065
0.0159893
0.0225611
0.00919953
0.0213883
0.00139312
0.00915602
0.0177859
0.00503411
0.0185514
0.0151422
0.0030478
0.0628434
0.114886
0.0512183
0.0239933
0.115613
0.0186752
0.0178184
0.0186385
0.0174623
0.00670333
0.102564
0.00836261
0.00780294
0.00481321
0.0168603
0.0202008
0.00772638
0.0839483
0.0249876
0.071769
0.112164
0.0120297
0.0385196
0.0224363
0.0605132
0.0279754
0.00744333
0.021979
0.00997706
0.00105708
0.0175519
0.0141021
0.0596682
0.00629425
0.00410787
0.0221313
0.0273232
0.0701612
0.01867
0.0285109
0.0207716
0.0948671
0.00351659
0.00482476
0.0169856
0.016143
0.014452
0.108923
0.00405021
0.0765837
0.0940481
0.00459576
0.0980052
0.00944164
0.0531812
0.0238839
0.00228786
0.0673409
0.0297646
0.0186926
0.0569486
0.0124561
0.0114016
0.00186229
0.0677663
0.0140852
0.0156895
0.0666148
0.0720655
0.00436744
0.107799
0.0273898
0.0200682
0.00218353
0.0199991
0.114802
0.00159508
0.0594898
0.00715374
0.0009901
0.00381555
0.0141709
0.00267957
0.0240659
0.0306448
0.0018281
0.128698
0.0156042
0.00390852
0.0131516
0.00367245
0.0362348
0.00158284
0.0878218
0.0191435
0.00456417
0.00562534
0.0265731
0.0153636
0.0182178
0.00588843
0.0432625
0.00106681
0.024938
0.0188012
0.0722935
0.00238293
0.00175141
0.00598179
0.0106479
0.120344
0.0181349
0.0222915
0.0596636
0.0207173
0.00681195
0.00265929
0.00199849
0.0199147
0.0161233
0.0302766
0.0142015
0.0338844
0.111954
0.0188983
0.0423293
0.0125949
0.00913866
0.0228209
0.0764872