/*--------------------------------*- C++ -*----------------------------------*\
| =========                 |                                                 |
| \\      /  F ield         | OpenFOAM: The Open Source CFD Toolbox           |
|  \\    /   O peration     | Version:  4.0                                   |
|   \\  /    A nd           | Web:      www.OpenFOAM.org                      |
|    \\/     M anipulation  |                                                 |
\*---------------------------------------------------------------------------*/
FoamFile
{
    version     2.0;
    format      ascii;
    class       volScalarField;
    location    "759";
    object      nuTilda;
}
// * * * * * * * * * * * * * * * * * * * * * * * * * * * * * * * * * * * * * //

dimensions      [0 2 -1 0 0 0 0];

internalField   nonuniform List<scalar> 
14558
(
0.0303101
0.0173047
0.029201
0.016729
0.0762171
0.0190673
0.0104035
0.00722557
0.00364692
0.00991542
0.0271243
0.0109481
0.105207
0.00478324
0.00856799
0.0148312
0.0169734
0.027415
0.00771785
0.00142662
0.0149855
0.00383445
0.116883
0.014849
0.0262629
0.113344
0.0200043
0.0154659
0.0111873
0.00308612
0.00187589
0.0248455
0.0776745
0.0134032
0.0257305
0.0457472
0.114719
0.00769332
0.0492064
0.00404397
0.0206372
0.00293829
0.020456
0.00548411
0.0195974
0.019205
0.114888
0.00591313
0.00176584
0.0038684
0.0249023
0.00215418
0.00179499
0.0471753
0.00188176
0.0486933
0.0110796
0.0105436
0.0518463
0.00432005
0.0256244
0.0107745
0.0153244
0.0105425
0.0194692
0.070243
0.104946
0.00428175
0.00322372
0.0748276
0.00317716
0.0241109
0.0280378
0.0108302
0.0060701
0.0413422
0.00345732
0.0189482
0.0526337
0.00413442
0.0161331
0.0255887
0.00727579
0.00438963
0.0044878
0.0135243
0.010464
0.00216355
0.0167617
0.0279148
0.0145557
0.00263998
0.0111076
0.0273277
0.0165157
0.0012572
0.0643113
0.109351
0.109885
0.0073689
0.0118963
0.0196928
0.0785354
0.0196613
0.0304797
0.0944109
0.010091
0.00347886
0.0755646
0.111872
0.0145095
0.0240036
0.126948
0.120117
0.0195096
0.00799226
0.0185375
0.0456275
0.00244549
0.00684093
0.029191
0.019272
0.0963831
0.0155904
0.00931876
0.019215
0.0221681
0.00441203
0.0277923
0.0147084
0.0171164
0.0568324
0.00491093
0.076523
0.118127
0.00116012
0.00495591
0.027103
0.0178925
0.0173592
0.0511802
0.0327077
0.00618064
0.0156785
0.0224361
0.0551691
0.0611591
0.00247895
0.0653424
0.095038
0.0644387
0.00846552
0.0392757
0.0204528
0.00157202
0.118109
0.0157819
0.00214994
0.0706522
0.00611475
0.0208532
0.0244655
0.0227201
0.0604989
0.0244316
0.00198144
0.111406
0.00575567
0.0653948
0.0627298
0.134931
0.00713077
0.00411475
0.000494843
0.00333002
0.00417237
0.0201666
0.00253802
0.0934766
0.0199029
0.0553939
0.10936
0.0189199
0.0421625
0.0640027
0.000550305
0.0048404
0.0345311
0.00247885
0.0263042
0.000863292
0.0589972
0.00339591
0.10597
0.00238254
0.00488478
0.00198601
0.0728592
0.00340396
0.00251526
0.01665
0.105925
0.00456137
0.0688761
0.0433404
0.00248379
0.0802935
0.0256037
0.0252799
0.027687
0.0283592
0.101165
0.111895
0.0145862
0.0690738
0.098009
0.0566637
0.00281479
0.000836774
0.00315287
0.0189174
0.0420683
0.0285136
0.0300855
0.0849762
0.0256222
0.0105938
0.00217194
0.00370905
0.127804
0.0855603
0.0639053
0.0463289
0.0208373
0.0238384
0.0065532
0.0188288
0.00176838
0.0374007
0.0108236
0.00517548
0.0719231
0.0156738
0.00275637
0.0108541
0.00754844
0.0970786
0.0153234
0.00510778
0.00966874
0.00244535
0.111137
0.102973
0.0319977
0.00236886
0.00636118
0.0637808
0.00515403
0.113523
0.134508
0.135477
0.0170446
0.0167668
0.0357247
0.0102312
0.0176667
0.0144047
0.00563326
0.00263924
0.00684911
0.0416266
0.0676376
0.00940702
0.00222059
0.121988
0.0049547
0.00442314
0.00451888
0.00450962
0.0162127
0.0930369
0.0493097
0.110309
0.0420506
0.0455955
0.0404956
0.0235495
0.0174259
0.0406808
0.00338514
0.0236001
0.12158
0.0669277
0.00507598
0.00132095
0.046616
0.00502953
0.0212693
0.0126916
0.0134169
0.00460284
0.00321825
0.00432913
0.00272365
0.0815827
0.0407003
0.0590367
0.110115
0.0605344
0.0401765
0.0289102
0.0334039
0.0295158
0.106629
0.00214789
0.0184267
0.0644902
0.0842779
0.00945674
0.0693013
0.00118511
0.00803922
0.00666223
0.000566871
0.00579945
0.0370035
0.0220274
0.0026482
0.109661
0.0284207
0.106875
0.00299688
0.000340427
0.0161
0.00739271
0.0184198
0.0182014
0.0207128
0.0141795
0.01451
0.00754897
0.0598029
0.0720765
0.100637
0.0177245
0.00446033
0.013664
0.00967366
0.0272896
0.00263051
0.038895
0.00333339
0.00339609
0.0115387
0.00724114
0.0695543
0.0486155
0.0193355
0.0066264
0.00636119
0.120568
0.00225212
0.0678863
0.0506159
0.00301205
0.135748
0.0513678
0.0164927
0.00231375
0.00794296
0.0536352
0.0994394
0.0267126
0.0293862
0.0219073
0.0625218
0.0187872
0.0157455
0.0296472
0.0348028
0.0140303
0.0319161
0.0587604
0.0866585
0.125447
0.0127557
0.0292965
0.0467814
0.00322194
0.0158714
0.0641888
0.025075
0.0712553
0.00308426
0.0148801
0.0269562
0.0554566
0.00449699
0.00815593
0.0910849
0.00509596
0.00481209
0.119477
0.0207238
0.0236292
0.00140109
0.00699521
0.0214918
0.0376486
0.0220567
0.0957052
0.00230081
0.0107454
0.0682746
0.0322446
0.00962072
0.0726828
0.0165865
0.0794975
0.0305324
0.00435417
0.00569026
0.0262096
0.0256862
0.0111316
0.0326462
0.0243735
0.0202356
0.0200723
0.00818796
0.0591911
0.0409197
0.0206495
0.00231209
0.0255935
0.0964527
0.0692012
0.0707977
0.072806
0.052461
0.0316766
0.0131314
0.00345556
0.0219264
0.00841513
0.0719237
0.0993932
0.0927227
0.0576797
0.00738215
0.0167175
0.00415791
0.00746047
0.0645454
0.0428472
0.0210947
0.00879975
0.0174185
0.00731907
0.0723262
0.0344505
0.0205499
0.0405385
0.0281592
0.0171835
0.00130282
0.0679765
0.00360496
0.094406
0.00269031
0.0307021
0.00729865
0.0352412
0.0246369
0.0701798
0.116422
0.0232718
0.00709077
0.0828428
0.0687726
0.00827465
0.0188801
0.0209263
0.0323518
0.00351321
0.0138085
0.000415028
0.00215337
0.0234808
0.0268198
0.00259684
0.00316031
0.0343729
0.0107167
0.0608025
0.00459516
0.0579969
0.00503289
0.0415929
0.0140727
0.00205085
0.0129406
0.0151562
0.0456081
0.0394294
0.00707109
0.0255471
0.097582
0.0713221
0.0361589
0.016619
0.0213061
0.00804787
0.0421141
0.102778
0.0497731
0.0863045
0.0144244
0.0339238
0.0255184
0.132722
0.0239454
0.00460363
0.0452474
0.00177098
0.0143212
0.00429437
0.00473898
0.0208652
0.00418194
0.086048
0.0313759
0.040457
0.0428775
0.0309924
0.00637206
0.0133183
0.0895828
0.0365808
0.0007759
0.0042609
0.00172869
0.0126975
0.0187483
0.00273736
0.0057962
0.00746977
0.1037
0.0041713
0.116439
0.0726255
0.0057389
0.00524303
0.0407157
0.0243858
0.0164052
0.0530752
0.0174733
0.00219974
0.0880042
0.0141933
0.00848325
0.00650449
0.0670222
0.0149238
0.0149743
0.0338493
0.0505778
0.0278908
0.0547509
0.134511
0.00335654
0.0297821
0.0709518
0.0342843
0.0338454
0.0187383
0.0835027
0.0374647
0.0185358
0.0701511
0.0890932
0.0126275
0.0279678
0.0505061
0.0883734
0.0090788
0.015397
0.01141
0.090451
0.0140376
0.022134
0.0102438
0.0210476
0.0178217
0.0488867
0.0198797
0.0252624
0.0300194
0.0123055
0.00148966
0.00285006
0.0147406
0.006582
0.0391982
0.0136691
0.00446773
0.123856
0.0343024
0.10036
0.0182424
0.00278571
0.0188582
0.0206133
0.0333571
0.0862927
0.00768709
0.0241706
0.014914
0.00401926
0.0323362
0.0029138
0.0951991
0.0906688
0.0670498
0.00650848
0.0499156
0.0303867
0.0114219
0.00103469
0.0145168
0.027427
0.0106503
0.0597291
0.00874344
0.0204536
0.137376
0.0851554
0.00272527
0.0115676
0.00220547
0.00904576
0.0171387
0.00189747
0.0672765
0.030612
0.025055
0.0402808
0.124784
0.0144906
0.0879171
0.00771856
0.0209706
0.00428987
0.00343665
0.00877839
0.00144625
0.0246272
0.00292752
0.0440978
0.0597235
0.0652582
0.000784295
0.106783
0.039607
0.050455
0.0316472
0.134724
0.00351137
0.00285307
0.0646015
0.0107945
0.00853653
0.0915977
0.00518743
0.00708651
0.024312
0.0166101
0.0431407
0.00202452
0.00489041
0.00513084
0.00254388
0.0649819
0.094136
0.000101182
0.0168563
0.0113268
0.0535246
0.00105319
0.000670385
0.0267887
0.00220717
0.00442804
0.00333312
0.0358912
0.0239735
0.116857
0.0966073
0.00273972
0.0550711
0.0271636
0.000538599
0.0620634
0.0760818
0.00762216
0.0597908
0.00817613
0.0293375
0.0251902
0.0884787
0.0134808
0.0241145
0.0101141
0.00492001
0.014666
0.0599903
0.020496
0.0142902
0.0204622
0.00620053
0.00371647
0.0973516
0.0076935
0.0189711
0.0573888
0.00683163
0.0126454
0.00897534
0.0787245
0.00986064
0.00390799
0.0231567
0.00385828
0.058085
0.00966412
0.059571
0.0747179
0.00440867
0.00216419
0.0503744
0.0178325
0.00373772
0.0213562
0.0397736
0.0254561
0.0834234
0.0299057
0.0120063
0.00302845
0.0118596
0.0256419
0.0261765
0.00554726
0.0104189
0.00282544
0.05459
0.0277783
0.0483195
0.0272456
0.063485
0.0100272
0.0301018
0.02692
0.00661072
0.00204534
0.0717331
0.0151679
0.0818645
0.00828527
0.018539
0.041709
0.0033433
0.0709889
0.0188095
0.0138934
0.0285033
0.0164882
0.00318144
0.117542
0.0599971
0.135227
0.0889204
0.00448427
0.0351227
0.0112454
0.0242929
0.0179325
0.011849
0.0190236
0.0260009
0.0212132
0.021658
0.00440974
0.121361
0.00483084
0.0906909
0.0205892
0.0217388
0.00570557
0.0206336
0.0300692
0.00970403
0.00872713
0.0194808
0.0219755
0.0158754
0.0105047
0.000287118
0.0285079
0.0034331
0.0351481
0.0149646
0.00445865
0.0191233
0.0256544
0.000386373
0.0217787
0.107638
0.0588549
0.00220284
0.116807
0.00845886
0.00554194
0.012449
0.0296293
0.0203151
0.0048458
0.0229506
0.0116227
0.0424753
0.00471502
0.0591774
0.0188317
0.0212961
0.00037767
0.00223283
0.0101179
0.00318907
0.00933095
0.015491
0.00126179
0.00258634
0.0208383
0.0219777
0.00608614
0.0100609
0.00987678
0.0924068
0.0873421
0.00959187
0.02971
0.00194231
0.0193001
0.00269386
0.0199663
0.000409774
0.0157954
0.0686282
0.0241544
0.00217277
0.0660882
0.00871956
0.0774377
0.00566881
0.00608855
0.00488265
0.00858016
0.00954438
0.0654173
0.102499
0.0222842
0.0783782
0.00693074
0.0143128
0.00740041
0.00548238
0.0108148
0.042934
0.0155774
0.0764466
0.0203333
0.118084
0.0657786
0.00494209
0.00301059
0.0191094
0.126903
0.00437257
0.0165701
0.0190501
0.0774563
0.0148325
0.0198589
0.0363016
0.00560355
0.056376
0.00296335
0.0217102
0.00287511
0.0179179
0.00429689
0.0846149
0.080758
0.0101748
0.0081924
0.11697
0.073257
0.00240008
0.0199354
0.105465
0.0142133
0.00271571
0.00706381
0.00314257
0.065851
0.103572
0.00236607
0.0187071
0.00294854
0.00283368
0.0082757
0.0128868
0.00924963
0.0230048
0.00920972
0.00650427
0.0864375
0.0165222
0.015226
0.00474372
0.00615944
0.00809719
0.0301041
0.0263396
0.0352204
0.0558412
0.122879
0.00548551
0.0383422
0.00303176
0.030764
0.0726717
0.0462272
0.0358145
0.0274854
0.0300942
0.00220203
0.00228924
0.0195581
0.0218803
0.0158569
0.00208943
0.0163836
0.00231412
0.0124662
0.0356745
0.000456218
0.0260433
0.0321801
0.0147488
0.04247
0.0231989
0.0279143
0.00513325
0.0964781
0.00457379
0.00358829
0.0549406
0.00228346
0.0194869
0.00279118
0.0179605
0.0215243
0.00230222
0.0047857
0.0242985
0.0748927
0.00690525
0.0642514
0.0180568
0.00645807
0.0212288
0.019026
0.0255602
0.024579
0.0163454
0.0687362
0.113745
0.00485615
0.0544586
0.0680646
0.0272993
0.0056791
0.0607063
0.00523411
0.121542
0.000403763
0.00255244
0.117392
0.0302562
0.067167
0.0186825
0.0257277
0.0350428
0.0146162
0.099653
0.0514459
0.019216
0.0635917
0.105075
0.00156457
0.00621252
0.0589984
0.0700744
0.0543648
0.0241468
0.00864895
0.0853041
0.0239868
0.0588827
0.0175107
0.0373359
0.0554866
0.00277516
0.0318614
0.0337624
0.00788091
0.027507
0.0320489
0.11334
0.0200594
0.0138911
0.00432466
0.00385023
0.0626451
0.000557534
0.0243466
0.0208255
0.0155084
0.0312367
0.0601964
0.0118586
0.000951021
0.00854062
0.00534953
0.0249353
0.0511589
0.0376471
0.0574709
0.00644671
0.0087203
0.0136334
0.00628909
0.0508944
0.0762576
0.0486987
0.0122623
0.0174938
0.110884
0.0327055
0.0220804
0.0129501
0.00279316
0.022931
0.0301601
0.0272771
0.130149
0.0996362
0.0313602
0.00140564
0.0090352
0.00709495
0.00739224
0.109044
0.00323984
0.0028462
0.0226995
0.0423076
0.0791218
0.0037244
0.00703754
0.00647397
0.0206786
0.0297342
0.0191668
0.0262503
0.00439904
0.0236217
0.0349574
0.0442579
0.0563782
0.00352012
0.102138
0.0939443
0.020396
0.109023
0.127835
0.00390619
0.0182196
0.0145307
0.017684
0.00655463
0.036068
0.00197279
0.0205375
0.0582739
0.0217641
0.00693176
0.084049
0.00218992
0.0874313
0.0250132
0.041982
0.0119192
0.0729253
0.0371103
0.00719464
0.119295
0.00103584
0.0165345
0.0108929
0.0102405
0.136132
0.0151123
0.0165701
0.0208118
0.0144451
0.0158165
0.0253456
0.0863242
0.00788074
0.00825842
0.000887824
0.0540986
0.0328624
0.00758982
0.00812515
0.0848304
0.00497845
0.00732724
0.0337972
0.0188023
0.106177
0.00285459
0.045611
0.000159083
0.0303298
0.00404819
0.00305293
0.00685642
0.00229898
0.0103329
0.0268518
0.0109256
0.0786489
0.000848182
0.036397
0.117701
0.00275661
0.0283011
0.0479153
0.0646846
0.00426479
0.00334102
0.00148968
0.0347643
0.00429187
0.0746455
0.00699734
0.00411659
0.00555455
0.0120233
0.0048515
0.00314915
0.0560032
0.023452
0.0408264
0.0276986
0.12318
0.0775987
0.133628
0.00350555
0.000613751
0.00678114
0.13493
0.0662004
0.0032825
0.0371606
0.00330518
0.00234255
0.00969502
0.0110538
0.0101977
0.00528404
0.0258523
0.0210809
0.00145021
0.00107769
0.0132724
0.00369171
0.0818785
0.00144341
0.0795353
0.0686167
0.0183404
0.00480478
0.0272957
0.00386365
0.0557465
0.0260531
0.0210335
0.0373683
0.053613
0.00403037
0.0135734
0.00512443
0.0036119
0.0221884
0.0159704
0.0242041
0.111005
0.0109595
0.00478473
0.0035299
0.0624994
0.0669705
0.00318313
0.0111297
0.0566899
0.0146734
0.00420034
0.00703821
0.046409
0.00846642
0.0177354
0.00329943
0.0456992
0.0376871
0.0423394
0.0668862
0.00736028
0.00164898
0.00797223
0.0125066
0.00363562
0.106516
0.00347946
0.00403862
0.00850498
0.0159858
0.00186589
0.00746775
0.00409306
0.0204507
0.00662282
0.00347675
0.0248479
0.0124697
0.0358785
0.0354772
0.00456495
0.0559114
0.0225819
0.019178
0.00159134
0.121428
0.0342364
0.00120995
0.00859847
0.0036416
0.0403465
0.0604336
0.0190173
0.0318939
0.0826364
0.011551
0.0315509
0.00720776
0.0560241
0.0143127
0.0172258
0.00655026
0.0892472
0.00386864
0.00394409
0.0955089
0.0138668
0.00405349
0.0861689
0.0218467
0.0113826
0.0239994
0.0323625
0.117307
0.00223888
0.0346781
0.00344175
0.0152351
0.0166097
0.0567439
0.00224736
0.00237527
0.0236754
0.0176751
0.0487557
0.119313
0.0092982
0.0140233
0.0649428
0.0109445
0.00252091
0.00517482
0.00197551
0.00344401
0.0381317
0.0300756
0.137739
0.00242005
0.00263559
0.0745285
0.0521563
0.00798578
0.0185948
0.00247636
0.0782024
0.0476233
0.0428053
0.112157
0.0156043
0.0298755
0.0417622
0.0794526
0.0675859
0.0046249
0.000670003
0.0015038
0.062066
0.0879209
0.00467433
0.106719
0.0765359
0.0177759
0.0940031
0.00164027
0.00850778
0.0464972
0.0651796
0.131714
0.00256808
0.0292962
0.0277441
0.00311258
0.0125824
0.0121415
0.00289383
0.0412291
0.0165474
0.0740424
0.128779
0.0239768
0.0380058
0.0464272
0.00446892
0.0220941
0.00781684
0.00817623
0.0159441
0.00608207
0.00556686
0.0163079
0.00344727
0.0374255
0.00252767
0.0825807
0.0651364
0.0113378
0.0168882
0.00546035
0.0263727
0.0345115
0.00010488
0.0218156
0.123058
0.0218694
0.0202736
0.0265645
0.0331255
0.00725947
0.0499698
0.0378522
0.00783998
0.0382929
0.00475198
0.0299185
0.0748265
0.0714188
0.0986485
0.0805089
0.00779314
0.0214296
0.0320922
0.0192274
0.00668953
0.0132173
0.0261543
0.0332447
0.0292027
0.0314239
0.0299436
0.0781995
0.00336409
0.018366
0.00568513
0.0359001
0.00675388
0.0666413
0.00458088
0.00446269
0.0285842
0.0527225
0.0140908
0.00456951
0.0129154
0.0145372
0.0121114
0.0570698
0.0135822
0.0185197
0.0022993
0.00421291
0.0405801
0.000424338
0.0767344
0.00507279
0.0228565
0.0141627
0.0402055
0.134746
0.00122798
0.00578379
0.00647446
0.00621857
0.00480766
0.00917719
0.0235059
0.053199
0.0273486
0.0204765
0.0120371
0.0974073
0.0529329
0.0194016
0.0372006
0.0639192
0.0193158
0.0380241
0.0607201
0.0162706
0.131856
0.00498614
0.00200578
0.00346
0.0114106
0.0499056
0.122944
0.00706079
0.0219343
0.012643
0.00735857
0.0494833
0.00470813
0.0387522
0.0176537
0.0156311
0.00383326
0.00165192
0.0149276
0.0532871
0.0231961
0.00103672
2.02107e-05
0.00224215
0.0158291
0.00320247
0.00291998
0.0104493
0.00042599
0.00840489
0.000674157
0.0331367
0.0885676
0.067353
0.0255026
0.0494092
0.0550507
0.0121136
0.00834997
0.00772241
0.0217457
0.0146042
0.0070347
0.021474
0.0372839
0.0279402
0.0122484
0.0977698
0.0472109
0.0717217
0.0562724
0.00715127
0.00520308
0.075317
0.0096059
0.0139735
0.000714253
0.0144084
0.0906939
0.00846866
0.0343874
0.00754517
0.0204844
0.0206858
0.0579184
0.00389623
0.00613838
0.00672492
0.0179355
0.0302502
0.00350345
0.00544876
0.00844213
0.00432153
0.00231495
0.0483643
0.00203527
0.0319349
0.0446341
0.0205778
0.0166932
0.00296864
0.0131958
0.00107957
0.0443785
0.0152379
0.0800353
0.0448885
0.0139387
0.0333211
0.0594507
0.052118
0.0183224
0.00541428
0.0163917
0.0530896
0.0110001
0.00238884
0.00442766
0.00369305
0.00998633
0.115806
0.0185508
3.69131e-05
0.00138087
0.00737013
0.0659199
0.0192781
0.00501742
0.000866424
0.00117627
0.0186717
0.0167682
0.0124822
0.0169058
0.12263
0.0136383
0.00202206
0.0785909
0.000962269
0.0070621
0.124266
0.117521
0.0131338
0.100681
0.0520558
0.019875
0.0761772
0.00867695
0.025595
0.0126515
0.0143482
0.0287546
0.00536484
0.00345726
0.0023122
0.0116424
0.0100653
0.00905557
0.0163606
0.0454546
0.00261631
0.035642
0.0488003
0.057473
0.00326317
0.0960787
0.115813
0.0139496
0.0318359
0.00162754
0.0553284
0.00177096
0.00430092
0.0126352
0.0206764
0.00220886
0.024597
0.0360809
0.103729
0.010749
0.0401941
0.0122147
0.0208489
0.0128325
0.00135267
0.0445591
0.0235903
0.0215594
0.0210864
0.015416
0.112358
0.0447325
0.124584
0.0220225
0.00588204
0.00629686
0.0159398
0.00360576
0.0070401
0.01891
0.0295604
0.127987
0.00262166
0.0201515
0.0102213
0.0162145
0.00150481
0.019467
0.00494947
0.00835854
0.0043576
0.112274
0.00487687
0.034639
0.112953
0.0422992
0.0636102
0.033084
0.0036842
0.019566
0.0718509
0.0157729
0.0211957
0.0254159
0.0118505
0.0199566
0.0532881
0.0374849
0.0157058
0.0182704
0.00312474
0.0080602
0.0130928
0.0707197
0.0616924
0.0342259
0.00516954
0.00453647
0.0817851
0.0138102
0.000311618
0.032009
0.00667296
0.0162346
0.0493478
0.00742487
0.00892377
0.025299
0.0063329
0.0681334
0.0204393
0.114609
0.0564195
0.104788
0.0230573
0.00299683
0.00589284
0.00524339
0.0238313
0.11965
0.0217437
0.00330056
0.0645749
0.0253307
0.023012
0.0252045
0.0594446
0.0258528
0.0381454
0.053837
0.0180514
0.00236593
0.00436576
0.0289016
0.00926796
0.0105485
0.0190581
0.0485475
0.0848346
0.0280759
0.0663413
0.0367712
0.00723958
0.0964635
0.0699132
0.017854
0.0211973
0.00876077
0.000280654
0.00918662
0.0154888
0.00867116
0.0120527
0.00107828
0.00443815
0.016208
0.0172173
0.0215583
0.00318112
0.0278675
0.000888953
0.0173944
0.095148
0.00243855
0.0256643
0.0566524
0.0420306
0.00278621
0.0691424
0.0719394
0.0169194
0.00189651
0.00218043
0.00933289
0.0198632
0.0347854
0.0297374
0.000874467
0.00187655
0.00256228
0.0943506
0.0311288
0.0112804
0.0133821
0.00417265
0.0642718
0.0252725
0.018147
0.0194927
0.00604081
0.00518289
0.0276879
0.0250207
0.0263192
0.023787
0.136145
0.00126877
0.0167452
0.0609365
0.0163056
0.0271308
0.0281614
0.0759362
0.0263412
0.00557008
0.116273
0.0239984
0.0198571
0.00138384
0.00720052
0.0425955
0.0130126
0.00916445
0.0742681
0.0125633
0.116205
0.0590996
0.0542902
0.00285917
0.0805242
0.00361009
0.00585075
0.071215
0.123001
0.0128695
0.0515126
0.0173398
0.0120061
0.000366359
0.00338058
0.00866831
0.000362353
0.00272328
0.0171357
0.0188626
0.0249452
0.00989033
0.0770714
0.0208818
0.0205619
0.0356328
0.033205
0.0148671
0.109543
0.00940529
0.132618
0.00848125
0.0126541
0.0217257
0.0202091
0.022753
0.0933601
0.00868772
0.00845912
0.0516788
0.00979964
0.0133716
0.0316806
0.00215991
0.0193828
0.00774223
0.00261198
0.00351454
0.00245719
0.0848805
0.0312295
0.0271684
0.00300252
0.0255078
0.0168329
0.037269
0.0052319
0.0020238
0.0160335
0.047442
0.00173417
0.00379031
0.00427948
0.0699699
0.0276869
0.0523858
0.0137896
0.0198142
0.00222432
0.0785534
0.00341186
0.019952
0.00468506
0.0173584
0.0849996
0.0163929
0.00913399
0.123681
0.00424262
0.137632
0.00247946
0.00682635
0.0198493
0.085805
0.000481125
0.00405937
0.00276726
0.115595
0.0200543
0.00513174
0.0209837
0.00989046
0.0027591
0.0417593
0.00555459
0.0139205
0.0154434
0.0107268
0.0029329
0.00735447
0.0123592
0.0029705
0.00287112
0.0134283
0.0039741
0.00594982
0.00236115
0.0128868
0.0437258
0.00440904
0.0205964
0.132151
0.0437125
0.115056
0.00936436
0.0153386
0.0215887
0.00292964
0.038712
0.0270366
0.106182
0.0104995
0.107589
0.0960339
0.00407418
0.0578154
0.00553937
0.0647323
0.000770152
0.00630553
0.00349021
0.00355178
0.00961804
0.00344974
0.122591
0.0700147
0.00722331
0.0154761
0.0119992
0.0239586
0.0564659
0.0231507
0.00365297
0.0411117
0.00773892
0.000738634
0.0197157
0.00449028
0.0136128
0.00922336
0.070318
0.0240358
0.00355147
0.080861
0.00264471
0.0951848
0.0072244
0.00373271
0.0603136
0.00216958
0.0219467
0.0166849
0.0205993
0.0497198
0.0320163
0.0607705
0.0241876
0.0457126
0.0183541
0.00938793
0.0405332
0.00070774
0.00576057
0.062413
0.124753
0.00648789
0.0144588
0.00910828
0.129605
0.0225356
0.0111416
0.0203129
0.0086267
0.0044417
0.0224507
0.105549
0.135831
0.0176075
0.107884
0.0888318
0.0406064
0.00250966
0.00494576
0.00241628
0.0465699
0.0159946
0.0193595
0.0145726
0.0118185
0.101698
0.0496357
0.0179483
0.000733598
0.00564465
0.0114282
0.0125859
0.0201634
0.0168775
0.0150331
0.0629423
0.0334143
0.0137672
0.0714065
0.0188534
0.124642
0.00643631
0.072421
0.00552732
0.0128068
0.00582943
0.0648919
0.123573
0.0218024
0.110522
0.0237218
0.00311153
0.0979129
0.00959593
0.0208122
0.00189226
0.0145653
0.00107953
0.0331985
0.0202152
0.115335
0.00668866
0.0626394
0.0657558
0.00983255
0.0168736
0.0876122
0.0193874
0.00882916
0.025039
0.110028
0.0430525
0.0105869
0.0150945
0.0115927
0.054159
0.0279232
0.0151416
0.0029302
0.00636711
0.0326498
0.0308846
0.00160464
0.00770741
0.00900434
0.00200174
0.0198066
0.00506835
0.0119646
0.0870786
0.0167236
0.0150329
0.0107907
0.119574
0.0331325
0.138928
0.00528463
0.0202039
0.0183882
0.0323536
0.0214801
0.113625
0.0721912
0.0185635
0.0497419
0.0502338
0.00290711
0.0236711
0.0121202
0.0215514
0.00604528
0.0394435
0.0222227
0.0221118
0.00153358
0.0587753
0.0352585
0.04636
0.0132893
0.0509792
0.0316206
0.0304365
6.00248e-05
0.0672772
0.0884371
0.00356834
0.0147782
0.00648659
0.0260626
0.119394
0.0208495
0.00118557
0.00527063
0.0371148
0.00496942
0.0095124
0.00192976
0.0386446
0.00129433
0.0176346
0.0419654
0.0204188
0.00417522
0.0121966
0.010929
0.00287767
0.0249962
0.0448012
0.0112423
0.0170639
0.0204768
0.115708
0.0150452
0.0152349
0.00462566
0.0253762
0.073308
0.0201463
0.0196291
0.0211836
0.0447008
0.0297334
0.0150887
0.0946454
0.00504552
0.00109149
0.0089525
0.00310289
0.00327617
0.0161938
0.0144067
0.00695419
0.0400948
0.00281011
0.00960721
0.015224
0.0156248
0.011528
0.0595492
0.0172556
0.0270938
0.00915993
0.00626614
0.0105005
0.0237393
0.0223994
0.0819669
0.111362
0.0489608
0.00330908
0.00970314
0.0215751
0.001055
0.00466432
0.118193
0.0295275
0.0248538
0.0137384
0.0736065
0.0198686
0.0184941
0.00371782
0.0810604
0.0422979
0.0400279
0.0169469
0.00106536
0.00264944
0.0108769
0.0311934
0.00277328
0.0274985
0.074361
0.00375692
0.0759635
0.0226186
0.0146368
0.127951
0.00133985
0.117112
0.0814295
0.0657719
0.0155044
0.00770333
0.00823493
0.00142943
0.00349621
0.0183136
0.00226782
0.00685869
0.0403801
0.0347035
0.00336557
0.000718749
0.0146056
0.031038
0.00472504
0.0171735
0.00584517
0.0589833
0.0116993
0.026573
0.00839141
0.00254269
0.0242537
0.0185978
0.0667136
0.00719559
0.0210995
0.0803035
0.00879537
0.0401621
0.0036464
0.00863823
0.0210159
0.0149157
0.0174543
0.0177007
0.0162102
0.00415914
0.0212992
0.0579016
0.0010592
0.0312195
0.00698192
0.0505491
0.00609039
0.00149745
0.00950695
0.0556925
0.0122411
0.00220796
0.0139681
0.116087
0.00279413
0.0101641
0.00113732
0.0920534
0.0036659
0.00548541
0.0197574
0.00992408
0.00400895
0.0937676
0.0313467
0.0143265
0.00755997
0.0939324
0.078397
0.00457078
0.00876365
0.0220185
0.00984312
0.00474706
0.00715102
0.00785395
0.0542027
0.00117652
0.0123237
0.00349209
0.0226114
0.00924867
0.00333918
0.011686
0.00195695
0.0628558
0.00461992
0.13768
0.00505468
0.0704545
0.00860894
0.0628242
0.00464744
0.00598808
0.00236495
0.00838714
0.00715616
0.0597283
0.0102055
0.0321957
0.0225473
0.015655
0.0187817
0.0131177
0.0313374
0.0024247
0.0306157
0.000910408
0.0644479
0.0554793
0.00582745
0.0271292
0.00525651
0.0270241
0.0160251
0.0114228
0.00231805
0.0110686
0.00885441
0.0226299
0.0156689
0.0227838
0.00248235
0.127651
0.0345235
0.0432324
0.0113186
0.0176044
0.00427574
0.0180953
0.0389162
0.00509993
0.00317759
0.0142995
0.0984161
0.0260584
0.0744968
0.01351
0.0555777
0.00243345
0.069832
0.00898027
0.0411325
0.129501
0.0269538
0.0172656
0.0782627
0.00204336
0.0701251
0.0478488
0.00790806
0.0207285
0.0393432
0.0274722
0.0946298
0.00137047
0.000856109
0.0153487
0.112844
0.0104903
0.00146019
0.133502
0.00170243
0.113848
0.0286013
0.073728
0.0237172
0.00960064
0.0314662
0.0198168
0.0111115
0.051766
0.0981079
0.0187073
0.0203562
0.00908505
0.138302
0.0803789
0.00629325
0.0593234
0.095719
0.00927117
0.0948179
0.000419784
0.014271
0.0179896
0.0221445
0.0109223
0.00936963
0.00804568
0.0123059
0.0735811
0.0610584
0.0126176
0.000147707
0.0122373
0.0626021
0.00202113
0.0188734
0.0435787
0.111066
0.0333168
0.0169873
0.00464812
0.0443726
0.0154091
0.0947986
0.00125056
0.00992813
0.00721717
0.0299182
0.000728542
0.086624
0.0253461
0.00356802
0.101345
0.0190524
0.00277789
0.0200578
0.0034221
0.0193214
0.00486461
0.00096151
0.0127816
0.0501771
0.00295086
0.0059525
0.0210355
0.0063188
0.00655104
0.0249112
0.0651557
0.0380434
0.0451216
0.00751978
0.00369904
0.0110069
0.092121
0.00844993
0.0173484
0.0757064
0.00334183
0.00948689
0.0164329
0.0175878
0.0139059
0.00256367
0.00328735
0.0823815
0.0867087
0.000953529
0.0489169
0.000760734
0.0209931
0.00633068
0.0316005
0.0749912
0.0232208
0.00967653
0.0327602
0.0915518
0.0213906
0.0348709
0.0679814
0.0937469
0.0135562
0.0141053
0.0228387
0.0257986
0.00894556
0.00587453
0.0221755
0.0265439
0.0191151
0.129318
0.00290548
0.0150454
0.0516889
0.0122907
0.0233582
0.0596385
0.0249249
0.0895216
0.00650809
0.0364838
0.0140696
0.0260573
0.0103317
0.00949637
0.0171338
0.0505468
0.00661515
0.00745293
0.0649794
0.0928258
0.00506518
0.00216693
0.114112
0.0715928
0.0198449
0.0143136
0.009363
0.0023032
0.00137148
0.0170348
0.0639793
0.105389
0.00885114
0.0182787
0.0199045
0.022009
0.0908236
0.00617869
0.0108922
0.0212446
0.0179888
0.0346523
0.00327792
0.0303937
0.0282603
0.00477009
0.00750427
0.0252509
0.000758184
0.00965796
0.00226063
3.63065e-05
0.03751
0.00413604
0.0622984
0.00910832
0.0039836
0.0288632
0.0143256
0.00172681
0.0577497
0.0693426
0.0133553
0.126016
0.0668786
0.0624715
0.0126328
0.0303646
0.00283013
0.00275783
0.00253788
0.0254063
0.000123074
0.0195198
0.00423427
0.013965
0.0667833
0.00326105
0.0247921
0.0412295
0.0243435
0.0221423
0.0343903
0.111886
0.00356423
0.0219101
0.00925959
0.0314904
0.030374
0.0336309
0.0215197
0.00320178
0.0827481
0.0280684
0.0115912
0.117336
0.0181116
0.00607798
0.00767018
0.00320927
0.018267
0.0188471
0.0150919
0.0201814
0.0318739
0.0630033
0.00999007
0.0132593
0.0123586
0.0201725
0.0108071
0.00722801
0.0165989
0.00124456
0.0810901
0.00445473
0.00321265
0.00769633
0.0856416
0.0298998
0.0132306
0.00455383
0.00608479
0.00323136
0.00582262
0.00616051
0.00690387
0.00372842
0.0157759
0.0256029
0.0244174
0.0201525
0.00427342
0.0386983
0.00187868
0.0092601
0.0171072
0.0289495
0.0367427
0.00282237
0.019326
0.00300814
0.00559624
0.00717664
9.89799e-05
0.0339169
0.0160734
0.000557461
0.0510607
0.00419039
0.0075642
0.0182956
0.00188535
0.0141424
0.00683591
0.0408532
0.0210745
0.0134389
0.00951638
0.0011679
0.00811218
0.0936411
0.0215903
0.0556818
0.0203292
0.00406872
0.00733553
0.095074
0.0140583
0.00891326
0.0256895
0.0241644
0.0238971
0.00693589
0.00240821
0.0384823
0.135704
0.00514992
0.00710651
0.0583323
0.0203281
0.00476883
0.0776115
0.0365029
0.00775707
0.0282252
0.0331519
0.0470823
0.0119258
0.0222961
0.017427
0.000860512
0.0562102
0.0068916
0.0128053
0.00805977
0.040668
0.0541511
0.00273165
0.00251234
0.024261
0.0183055
0.0197775
0.00362234
0.00351549
0.0202374
0.021221
0.00464123
0.126184
0.00539007
0.0116577
0.0366603
0.0170002
0.00484344
0.0962855
0.000555658
0.0220359
0.0207962
0.00455194
0.0285151
0.0360339
0.0424571
0.0567862
0.00521795
0.0173654
0.0558739
0.031744
0.0033919
0.035418
0.00943302
0.0844146
0.0371046
0.0176225
0.123425
0.0063487
0.0206127
0.0270689
0.136338
0.0415465
0.0240339
0.118213
0.0306024
0.0171873
0.000704017
0.118984
0.0205612
0.114814
8.35272e-05
0.116687
0.00373783
0.00441532
0.00433245
0.00410072
0.0159893
0.0225611
0.00919954
0.0213883
0.00139374
0.00915603
0.0177859
0.00503416
0.0185514
0.0151423
0.00304793
0.0628434
0.114886
0.0512183
0.0239933
0.115613
0.0186752
0.0178184
0.0186385
0.0174623
0.00670336
0.102564
0.00836263
0.00780295
0.00481326
0.0168603
0.0202008
0.0077264
0.0839483
0.0249876
0.071769
0.112164
0.0120297
0.0385196
0.0224363
0.0605132
0.0279754
0.00744335
0.021979
0.00997707
0.00105815
0.0175519
0.0141021
0.0596682
0.00629428
0.00410794
0.0221313
0.0273232
0.0701612
0.01867
0.0285109
0.0207716
0.0948671
0.00351668
0.00482482
0.0169856
0.016143
0.014452
0.108923
0.00405028
0.0765837
0.0940481
0.00459582
0.0980052
0.00944165
0.0531812
0.0238839
0.00228809
0.0673409
0.0297646
0.0186926
0.0569486
0.0124561
0.0114016
0.00186264
0.0677663
0.0140852
0.0156895
0.0666148
0.0720655
0.0043675
0.107799
0.0273898
0.0200682
0.00218378
0.0199991
0.114802
0.00159555
0.0594898
0.00715376
0.000991328
0.00381563
0.0141709
0.00267973
0.0240659
0.0306448
0.00182847
0.128698
0.0156042
0.0039086
0.0131517
0.00367254
0.0362348
0.00158332
0.0878218
0.0191435
0.00456423
0.00562538
0.0265731
0.0153636
0.0182178
0.00588846
0.0432625
0.00106787
0.024938
0.0188012
0.0722935
0.00238314
0.0017518
0.00598183
0.0106479
0.120344
0.0181349
0.0222915
0.0596636
0.0207173
0.00681198
0.00265947
0.0019988
0.0199147
0.0161233
0.0302767
0.0142015
0.0338844
0.111954
0.0188983
0.0423293
0.012595
0.00913868