/*--------------------------------*- C++ -*----------------------------------*\
| =========                 |                                                 |
| \\      /  F ield         | OpenFOAM: The Open Source CFD Toolbox           |
|  \\    /   O peration     | Version:  4.0                                   |
|   \\  /    A nd           | Web:      www.OpenFOAM.org                      |
|    \\/     M anipulation  |                                                 |
\*---------------------------------------------------------------------------*/
FoamFile
{
    version     2.0;
    format      ascii;
    class       volScalarField;
    location    "759";
    object      p;
}
// * * * * * * * * * * * * * * * * * * * * * * * * * * * * * * * * * * * * * //

dimensions      [0 2 -2 0 0 0 0];

internalField   nonuniform List<scalar> 
14558
(
-7.6769
9.74418
-7.94671
9.66285
32.0659
11.7489
-4.00358
-1.30932
23.6774
-1.75396
-33.194
-1.14021
14.7039
21.9934
-0.557843
-94.3795
-53.975
7.7803
-0.472236
36.5434
4.92028
23.0545
5.08747
4.65435
-32.2837
7.37661
-4.69546
-54.9793
-2.1834
24.0051
32.1174
4.85668
30.4383
0.134386
-14.2316
-8.54744
4.72059
-1.91966
0.516306
12.3859
-4.29887
26.0095
3.29506
21.5543
11.6369
12.0886
7.42158
11.3288
35.011
22.1073
4.31793
23.6831
34.5046
-6.52514
34.5967
-1.19375
3.5674
-5.23249
-2.13666
21.1956
1.8777
4.34239
-1.09534
-2.4846
3.16528
16.3591
14.9114
21.3876
28.5044
16.7218
29.5123
3.88557
7.59662
6.70867
43.6884
-12.2101
27.0764
12.273
-1.75164
21.1087
-95.0226
-15.326
12.7212
12.3114
5.01804
-0.0222899
4.33248
22.5399
2.87622
7.66564
-102.688
30.1484
3.41589
7.71494
-1.3445
36.6976
18.3713
4.86633
13.68
8.69832
-18.9266
-6.88884
29.0636
-83.8503
10.509
19.3086
-14.1671
25.4357
31.7054
12.8342
-0.320518
-11.0116
10.4663
10.9261
-6.72903
6.17576
-2.72313
2.57349
32.4635
8.98322
-105.592
-15.124
18.0619
-1.15412
-159.776
-0.0137983
-7.35861
18.8469
-34.3163
12.0249
1.69964
51.2695
2.76291
30.1558
11.6597
40.2646
-26.5457
6.56225
-4.46383
-9.56149
-53.0629
2.04708
10.528
1.38848
-7.66284
-15.7087
11.416
31.7265
25.2484
19.1925
-3.76567
19.2556
2.18167
11.5576
36.1191
11.3017
-15.2699
31.8096
12.4105
-3.12014
-2.91504
-9.41291
1.53474
10.7125
-16.8445
34.2127
10.5663
21.1213
27.7376
18.224
3.91151
6.65717
25.4531
25.721
24.8871
17.4636
0.0489128
31.7213
18.307
2.5083
-15.9405
11.8944
-6.73694
38.9254
43.3018
41.5606
5.1663
6.10454
33.4096
7.51253
39.8752
-7.5662
15.6763
14.7634
20.877
-12.8878
31.7214
35.041
26.7338
30.3653
-0.427294
12.0246
-43.5684
-2.25721
-10.8235
24.7003
15.8615
-11.701
5.41791
-12.1978
-47.0427
12.7442
12.2864
0.0184162
-8.35981
14.54
-11.7341
30.3561
40.7242
27.7892
8.99081
-11.1703
-34.0875
10.6561
16.3076
11.0887
3.33223
33.1815
-54.0666
10.4296
13.2103
-0.792318
-0.535782
-56.9756
3.80634
21.5038
-11.3158
35.8523
-4.51593
-124.009
1.66019
-0.792765
-11.554
26.6788
3.9091
7.04532
3.48205
-36.7047
-63.8016
14.461
30.0248
13.1518
12.0811
0.898053
25.8441
21.174
26.4346
-16.4864
12.5209
10.0172
9.37526
1.39217
-37.4845
-1.29816
2.02518
-42.7676
-2.28709
1.70449
31.6366
9.22917
-34.6682
12.4575
17.1796
-7.95723
11.0986
-1.1881
19.208
17.3673
-17.4088
139.196
17.8746
-21.5752
11.5679
27.294
-22.8758
-35.9914
-18.6305
40.4204
-3.52007
21.809
-16.9557
11.2409
40.0786
16.6694
35.4017
0.921329
17.0086
-50.2064
1.2757
0.137264
28.0689
22.7542
23.922
20.8849
0.669323
-38.6924
48.5472
12.3542
31.2763
-66.6457
7.91776
-63.4899
-24.6186
3.59671
31.0613
-6.05653
1.23571
0.985793
1.35926
12.5573
36.1136
2.55418
21.2618
38.3607
-9.73959
-63.6551
1.56923
28.7478
10.6641
-54.3119
3.62484
15.7518
39.5215
-41.0982
0.28752
-2.74851
-0.459238
-1.68694
-22.4742
-1.88149
18.3617
-6.58873
35.1256
12.7185
-4.21749
10.244
3.4068
-100.332
1.73841
30.8411
-4.38422
26.4949
27.4772
-41.5704
-23.4574
13.7562
-64.4722
-1.81369
-0.754073
21.7752
11.2403
26.5774
2.07118
-2.96128
26.1403
9.19131
-2.12031
-1.35891
31.7527
-3.20107
0.268986
3.5561
7.46539
6.36645
-82.9817
10.6537
-1.9478
12.5317
-42.08
-1.11603
0.00742603
0.393158
22.8876
12.3274
10.6306
-2.32075
-8.45447
-2.06812
25.8525
-96.8658
42.4071
-11.7582
2.01893
-65.2758
3.41625
6.61138
-6.58961
-14.9947
-180.85
19.6146
10.4318
15.3279
11.2007
10.7496
-6.46746
4.10225
-21.2758
-3.23964
-67.2761
-129.116
18.4135
30.6199
14.0311
12.2686
3.56212
-158.216
25.1297
12.5466
2.2258
-82.0662
3.69098
22.5537
55.3104
3.71846
14.1034
2.35738
125.477
-0.106474
-22.1484
-4.08985
47.7423
-5.58841
7.18764
30.7891
-11.9467
14.3907
22.3748
13.0794
-2.46137
-50.9227
-56.5138
15.203
20.506
-20.6347
-3.59574
-1.50126
11.165
13.0651
13.1841
12.2883
-117.599
16.2444
2.54444
1.51399
-35.4698
-6.94335
1.66561
12.0746
11.3972
13.4278
5.18878
-2.66141
-2.73783
-10.794
2.73902
39.3638
37.1466
22.6121
3.37834
16.5493
-81.4439
8.93051
-1.7106
-8.40982
15.9722
4.29449
-5.6894
19.8557
0.766555
29.5772
-3.46861
-1.96272
-4.1699
57.4127
20.8294
4.65841
42.6179
35.8079
-6.2329
3.69402
33.1423
18.4171
-98.3496
7.93983
49.1105
23.2205
7.72318
21.1417
-5.32806
14.914
32.5596
1.40262
14.0867
-0.115327
-12.1454
8.47823
5.22466
3.84839
33.4298
-62.9822
-3.57169
4.34499
-6.73422
-11.8542
15.6215
-3.94794
11.8201
-0.304763
38.1656
5.37735
10.8153
-33.3614
-30.8143
-8.2387
35.3568
12.0122
22.946
-2.35579
-3.91935
9.52103
19.254
-84.3128
-4.77807
-10.7257
-100.778
10.2213
0.821067
8.51305
17.5748
40.2439
25.5217
-68.6666
-52.6763
-2.40115
30.608
13.159
-7.8065
12.7414
19.8432
12.0121
26.0431
11.7205
13.0992
-13.4171
-124.834
-41.5883
50.8552
-3.51281
32.8586
2.23946
-41.7688
-0.62349
21.7936
26.0686
-0.389291
1.50558
-0.600857
2.12178
-49.0658
48.4206
3.0837
16.6537
7.87647
13.045
-60.1632
104.819
-113.246
5.75414
-50.3228
-49.4133
13.2526
3.63618
19.1656
-3.37507
13.2566
7.42105
-3.73201
-19.209
6.88659
12.2139
2.12825
-15.1812
6.32502
-13.8528
0.436461
-52.5903
2.6697
1.65769
3.09201
1.95401
31.5114
24.3149
-145.126
21.7954
-64.9461
0.0374392
5.0121
10.9575
-16.2176
12.2235
-5.88114
29.8304
2.77839
2.00057
4.05239
23.8323
0.281154
5.12234
8.54024
11.5205
-7.13147
26.865
18.5543
7.66785
11.7866
1.41719
-60.5758
-78.4155
-3.03891
39.3278
-0.938307
-19.7176
1.60527
6.63092
0.205912
0.77077
4.30934
1.60186
23.7548
-52.3374
35.3791
5.8795
-2.84334
35.1472
12.3449
3.18363
-17.521
-57.799
10.7981
-40.5521
23.3264
8.66467
3.82129
-5.76058
26.9698
5.11329
-25.5227
5.02627
29.3538
38.8673
11.9717
43.2881
40.4335
13.9164
-55.6479
-7.48963
-48.7294
8.21895
16.4381
28.6669
10.4262
17.0711
-61.1649
7.63435
3.25697
-171.122
-11.4627
0.270623
2.85487
31.6759
1.90657
-4.16416
30.9975
12.3626
14.3738
39.8532
6.60551
1.8866
1.02156
13.7252
39.2604
-65.0436
320.794
23.0936
-17.0875
-96.4779
5.20403
5.54287
18.4303
31.045
29.5804
-18.3937
41.6377
43.5066
28.5317
16.6845
-8.9208
2.75505
-45.0525
-9.9726
0.931413
0.846536
5.22422
-11.666
-62.8297
14.5167
11.3692
-6.06293
-0.936396
70.8256
-53.1691
-6.64287
12.239
0.078534
-1.91929
11.2273
4.39892
-117.477
0.343539
0.0965899
-174.96
25.6035
-15.0118
26.5119
5.05592
-25.6758
20.0043
16.2328
18.7204
32.9817
-4.46716
-2.54034
24.8282
-111.917
-88.3945
3.29267
13.0079
-49.4472
-26.3411
29.1111
5.94921
-26.9933
10.2956
-0.471609
1.15165
29.2038
51.8694
-30.1994
69.1846
-61.5954
42.9699
17.6524
-41.505
8.12024
0.753853
33.4828
25.4171
-0.31983
1.96958
2.3739
-5.96931
11.1264
-5.50439
32.4988
-6.42328
4.38646
4.25616
12.2083
12.0238
11.7288
7.49742
8.46968
16.9854
12.4064
0.667132
-53.7079
128.326
2.2674
0.237273
-2.00661
7.62313
1.18592
-4.77933
23.886
11.3653
-7.33826
18.9745
-11.6347
-6.77496
22.5226
-2.31389
-35.8584
18.2373
7.92475
12.0358
-87.1079
-16.5038
17.1134
39.6695
-32.0731
-3.13061
-61.4092
45.8273
3.851
-4.52551
-24.1029
40.779
-59.8
13.7299
6.2368
31.0064
4.0425
-19.594
3.46955
-10.4664
-43.8385
1.75758
21.7222
-15.4813
8.07784
-10.9221
-22.2568
7.24599
6.54202
10.51
33.8644
29.9548
9.89908
22.9737
-2.20811
13.7036
37.9616
32.1722
-2.42618
-3.86357
11.542
1.29347
2.31845
12.2358
3.12654
12.9698
4.26875
-50.9156
1.52613
13.4946
-105.225
34.7236
-16.9712
25.1612
6.61876
31.7382
11.0019
2.86019
17.7527
188.708
-6.74593
24.2549
-15.9854
-104.394
11.001
12.938
1.63589
11.8658
-53.7572
-137.471
20.1951
12.9495
-3.24636
-79.861
-12.5269
-1.30064
-19.696
9.78505
43.8215
-26.6758
22.0023
2.26492
10.6014
-6.90817
-128.265
-2.21275
-0.990605
8.92466
8.91822
-5.63264
14.4985
-33.1803
29.3988
10.6861
31.924
-19.221
-63.3715
0.286343
15.9911
4.26981
1.3794
11.6946
29.397
26.5933
-38.5419
13.5253
-0.157612
30.3708
-58.554
28.9701
-9.98518
13.0196
25.3355
-6.07674
30.4888
21.027
7.63798
-26.1281
-15.523
-5.35476
18.4662
14.9849
24.4959
-112.406
2.04909
8.24348
0.512471
6.62898
-45.4126
86.9326
-50.5175
48.6465
11.1372
-34.2855
-60.5017
19.0243
2.70211
30.5127
-8.09378
-6.64902
-20.9006
2.43173
32.1083
29.9249
-1.95677
9.28443
-0.458348
-99.3435
-1.24556
33.2993
2.20879
-61.8593
41.9981
-53.0582
-60.2036
-0.497896
8.00738
-5.62156
-29.1253
16.6055
2.96311
10.8797
27.3245
7.70769
21.751
-39.9894
29.8868
10.9095
4.15266
-236.685
2.18461
-17.3807
28.3751
9.12697
41.8318
10.7305
-9.71143
-3.13021
-4.34656
-11.4728
-8.31338
-15.5188
12.2627
11.9721
-55.733
50.312
-8.68499
-21.4785
-26.1577
45.3509
15.5625
10.5834
37.4018
29.108
10.889
-37.3189
-7.84332
12.3434
-12.2073
-95.0241
4.01518
3.53586
-46.2603
2.21188
0.859606
13.4683
34.4748
11.9828
22.9882
-6.32513
50.5887
6.36188
-1.8419
23.304
-35.2365
-1.48784
-2.81234
-83.6071
7.14023
30.6701
-0.40225
8.54021
5.34115
4.26712
-53.5796
12.351
-16.3427
-3.74454
17.2778
9.42445
-3.02401
7.09294
4.25376
0.732987
-31.4858
5.19987
44.1344
17.4535
38.8503
-129.112
15.5295
3.72182
2.15287
-86.1417
4.75433
9.72857
13.6221
-9.51739
12.1832
-1.25462
30.4726
0.911654
-2.28862
8.85844
13.1706
-0.665811
0.285318
-0.466319
32.0858
3.44488
5.86451
137.473
3.97005
13.1853
-3.58787
38.0448
8.17169
7.42611
-167.184
12.0706
28.3398
26.9153
3.59622
-75.99
28
16.0688
1.4283
21.0873
86.9871
-5.13902
-0.104092
-36.4329
18.8893
-4.62164
-13.5577
11.309
-16.7322
-16.9363
15.5749
19.6541
-7.55457
12.83
11.0069
17.9522
4.16909
-16.0029
-0.957865
0.645739
73.5488
34.8326
-4.14171
-3.54003
142.193
-25.6697
2.22698
-127.067
21.7734
-16.822
-42.1392
-44.4489
13.7129
-4.00845
-0.997796
4.55507
38.01
-3.97725
4.88881
-2.791
9.8982
10.1997
11.0988
-4.0387
-39.466
13.6118
5.38237
16.3014
0.41561
-43.9813
39.272
6.23437
5.64665
8.47402
-0.141853
23.4438
10.8491
8.50389
-59.8735
-11.271
14.1887
15.8458
59.1315
33.8265
-5.77173
4.16856
23.9375
-9.30107
32.8763
50.9931
8.0756
-17.8932
1.183
38.764
-93.7033
11.7532
28.605
-1.3193
-5.98542
10.4067
11.1903
19.9558
34.9935
9.01249
15.0708
13.5673
18.8384
24.9697
-9.89612
-2.47144
15.7143
-205.633
-9.84258
3.0764
39.4687
5.19363
11.011
0.766317
11.024
10.4268
42.5462
10.3756
10.747
-11.1479
13.3619
1.03507
20.2894
24.8126
0.906894
4.36009
1.25537
15.9906
-17.0256
-2.54738
33.2375
39.3594
-3.07053
23.8701
15.8204
34.6206
29.8628
28.9465
-2.23761
-13.3817
-19.1946
-61.027
42.9322
-13.3151
-5.22838
-63.4454
7.29582
20.1435
0.554696
16.6684
22.1616
-38.7431
6.32879
-36.2322
12.8062
-3.87568
7.38686
26.4713
-11.9913
-0.682658
27.8146
1.39867
-30.6399
-0.77665
23.9838
-0.615951
72.812
7.19299
-0.552018
20.952
-19.4257
-66.1876
-3.95161
-11.3791
1.26681
34.0906
-34.6708
0.75677
10.2428
14.1427
23.7262
-15.5634
19.4013
-139.698
34.1415
19.7397
20.5269
6.6246
20.6725
5.7517
137.755
12.6647
-85.4135
86.2593
-13.1411
49.7921
4.40122
-0.00788768
-18.0054
6.1068
-63.6554
38.2819
8.74257
5.66691
8.32681
-11.2966
1.22753
-2.84018
1.50969
4.61223
2.96681
-4.77162
43.8963
-9.534
-1.71542
-2.99742
21.8251
23.8711
24.8179
14.4814
4.0952
25.7847
18.5972
-3.78097
15.0246
6.7763
-3.68012
11.7987
21.0283
-80.7915
28.5018
-1.43751
-3.47445
11.6979
-158.256
31.9996
7.74296
4.13224
-5.35627
11.5631
8.92928
-0.97935
11.6307
2.63521
15.624
21.4672
33.7062
27.8417
-0.248934
5.5883
10.0395
20.6122
27.6472
30.2906
9.61217
5.37768
-2.30017
28.5601
30.72
-20.9555
-10.0783
12.5804
13.7716
-7.86997
1.0287
18.2877
11.9115
248.522
40.6454
37.0219
31.0344
17.1407
19.7072
14.6122
-3.21722
-2.075
19.4422
35.7543
5.82569
6.51497
0.191462
8.37989
27.2417
-72.9156
-32.4587
15.1652
10.7597
1.8131
-122.464
-2.98528
0.369572
34.7434
11.3
4.19862
-13.0382
-30.2568
154.527
-96.7845
8.3492
7.75837
11.3237
1.21836
-57.5041
13.1368
26.2362
4.47903
19.1796
4.7253
35.7785
0.812068
0.527324
-4.98848
5.41986
58.8448
40.5547
9.41849
11.2622
1.30076
0.51427
5.52467
-11.0353
8.78244
-50.6766
14.9717
17.3953
-91.8764
10.9334
6.3276
30.7189
13.3059
13.3195
-0.832335
18.4247
1.14021
-58.9066
-3.24256
8.29866
-1.09618
-14.451
-7.86137
-38.7892
3.37755
0.245961
24.7565
9.08267
-64.3774
2.99144
-2.53804
-51.9842
36.8374
-55.162
7.46884
-60.4357
53.475
5.30305
-124.277
4.32358
13.4085
15.1066
-25.6039
-1.07126
2.92292
34.1922
25.5533
-4.04565
40.8528
-0.560799
14.5894
3.08753
-1.52704
-1.62901
10.4184
37.0923
1.76385
-0.492269
9.43118
10.289
1.02041
-6.00539
-41.5386
5.04671
9.77622
-45.6468
16.087
11.1049
11.9282
-77.5696
0.590945
-12.8016
-63.2593
10.3981
-7.43461
8.57716
19.6506
22.591
26.9665
1.74569
-54.1227
4.89404
3.07616
-7.46498
-3.31337
0.911805
-38.715
-10.1209
-67.6473
-56.1966
-29.5749
21.1601
33.9435
4.71867
-17.9229
3.04949
39.8969
39.3293
34.7124
-134.144
13.4308
27.5765
1.17352
43.4995
-7.88635
41.7569
-59.8901
15.7828
26.2831
-11.8157
1.89756
53.9672
43.8704
5.7347
-52.5378
3.76232
179.905
16.7013
-4.8271
-88.6104
-25.5082
12.4951
18.2823
52.4873
2.33391
27.1148
-15.8626
11.6466
-0.219761
0.489613
-0.563374
38.907
-4.67763
4.8341
-2.06099
-1.53542
-4.97749
75.9804
-2.31188
46.4967
20.2998
21.9193
-13.211
77.3149
1.31041
23.6359
4.48463
7.33572
20.8576
29.4969
-27.1875
35.847
4.22753
-5.7295
-5.87077
8.83546
-52.3111
151.627
33.3012
-0.743457
-26.7483
16.515
-75.5608
0.0992789
3.09466
13.3519
8.77465
-14.2624
1.24631
13.1101
-10.0778
3.25444
20.9605
19.1554
17.3427
17.9172
7.00149
-0.326091
40.5466
38.0389
-2.09492
34.6066
-0.0347366
22.9099
39.0542
36.6408
11.6401
0.303098
10.105
-15.7265
10.2134
2.95256
24.3484
25.5575
36.7125
5.88049
10.8992
5.60905
3.4906
16.8091
36.7329
-0.184212
27.3207
0.849006
-12.3287
-0.342386
4.06245
-3.96084
14.9674
22.4834
25.0818
-0.447716
1.42755
6.38597
-0.995454
44.4319
30.8796
8.19104
8.34785
-5.64699
19.1012
10.9138
9.45555
5.0831
-20.7338
36.9236
37.7294
37.7326
-26.7969
14.9131
1.10311
26.0968
-66.9927
-62.1298
15.4221
3.68591
-2.186
-7.95041
0.908056
-115.107
36.7695
29.4928
3.13117
-3.29799
-4.68322
4.6538
9.1393
-8.65648
10.314
1.38313
13.3372
-33.5273
0.375408
26.1231
14.3416
-9.68807
-43.0908
10.0675
-74.7221
8.18036
-34.5124
-3.17748
31.817
-2.89597
13.7252
19.3724
-94.8901
8.68514
-117.776
-7.81926
11.8801
-74.3523
-11.0227
-60.2946
10.0051
6.4118
12.3448
13.5667
-2.87766
-17.6042
-29.6621
6.0969
-37.2026
-3.6661
3.57342
9.44638
26.4297
-16.8376
-26.371
36.1666
41.3164
-14.8397
-0.542621
-23.3749
20.1631
4.36347
43.2107
-17.7314
17.1522
-3.10077
9.05015
3.31607
19.0417
-11.4461
11.7348
21.3722
6.3345
12.3892
36.9901
14.926
-5.47792
272.6
13.6746
-190.817
-15.6325
10.4555
8.91985
17.4978
11.9317
-10.6561
-81.9594
5.15817
-0.393259
-74.8969
-76.058
-9.33629
-0.40543
22.6445
19.8257
3.64855
-18.4097
12.931
-2.4954
7.72884
6.59452
5.82701
-12.6644
1.50735
-0.972744
13.2887
35.7405
-0.23756
-126.864
6.5293
37.0969
10.2168
-1.07419
6.55616
12.0449
40.1611
18.0888
2.5299
-3.89103
9.41932
16.6389
4.83571
36.5031
6.02456
4.78589
32.508
-29.5253
3.73626
5.31575
28.3364
12.5642
33.5299
-1.14044
26.4539
27.2774
-5.41822
5.97935
-61.4416
6.30584
38.9405
32.367
24.1798
2.91652
6.50185
-1.85916
-8.56068
-1.71601
12.1783
48.6582
4.07715
-121.416
20.4029
19.6921
-51.1727
5.21736
5.39146
4.12201
8.00156
-66.6394
-1.49226
8.09838
-0.678299
-18.7686
2.11027
15.9555
-39.8352
4.79757
12.0024
5.78324
-90.4298
37.0072
0.00826718
-12.4666
-50.4553
-4.09188
23.8775
12.1677
11.117
-2.4012
34.2679
28.8286
18.5565
26.471
14.9065
14.6425
11.4139
-8.96529
-0.24941
0.326981
218.861
40.8273
26.6866
3.3023
39.4525
31.3145
-0.43012
-136.397
4.85187
11.8199
-2.33456
-12.3815
9.72814
-62.6212
-59.969
-0.403308
11.8287
1.99861
3.44751
-96.4924
-44.7423
-115.87
0.580798
2.41531
19.4865
3.05155
-64.5291
-3.60788
-3.32769
-3.10891
-58.9504
33.4218
-0.376449
-67.399
18.8313
11.6128
16.2588
4.10347
81.9988
-19.2929
23.1567
-27.3777
-1.21731
-63.1411
8.3791
36.3328
4.06376
-12.162
36.4113
23.1778
0.223144
37.2863
-20.9787
-1.40368
2.32312
-19.4548
19.2836
-1.83689
26.436
9.92032
17.7803
-68.0495
3.63211
13.3044
1.86952
11.0556
19.3544
11.2153
17.5605
-0.461406
135.682
13.5452
42.1332
4.35599
30.1263
6.70509
-5.69794
-9.82698
11.1266
13.7789
-33.0188
-4.18022
2.59627
14.6287
-43.8025
-7.12187
90.9562
1.28831
4.27818
21.1422
13.7517
2.82555
25.1819
2.43886
34.5268
4.09715
-1.66141
1.39405
0.334993
10.048
-47.9727
12.0682
-1.32927
9.10225
0.933947
29.4495
-68.4104
5.53268
12.642
-2.22709
14.3013
17.2874
12.5988
4.96221
6.08089
24.1844
42.0715
10.8815
-21.1598
-1.62934
13.6382
23.5417
11.1757
28.5571
-0.178916
-49.0775
-3.51687
3.4018
4.25505
7.70044
25.5712
83.9092
10.9376
29.9416
-0.316472
19.5069
4.60585
-0.557019
29.793
8.35505
19.5401
23.3211
16.0319
16.154
19.6028
21.0037
-15.737
30.7373
10.3221
119.334
-42.8512
-1.69884
-9.37701
22.1346
-11.6379
-18.2078
-1.02596
0.38247
86.8298
40.6123
5.01865
12.4175
10.2323
-57.5468
-6.06879
6.2175
11.2529
2.25826
2.15935
-9.2897
-10.9347
19.8128
-5.03919
14.4309
7.55676
-1.61055
12.9018
2.38047
-73.0829
30.8066
14.8958
32.7858
-1.73966
-1.24198
0.528031
-1.11503
-0.0585011
16.358
-19.4323
-4.96186
315.156
20.7315
13.2201
15.8906
-8.01025
-15.0239
2.07088
45.2802
-5.94384
-131.347
-3.80702
-0.075693
11.0184
12.0359
-6.64183
10.23
192.291
13.2633
44.5315
6.42114
-4.97526
11.9746
4.71015
28.9937
3.16481
-41.606
0.410895
35.179
14.1541
37.1219
-19.0584
-14.619
11.6348
11.2385
9.09786
17.1863
4.27998
-0.0989637
23.9723
-0.0817598
-10.3548
-37.333
13.4
-77.7914
-42.4666
-1.16904
8.54487
8.55986
-26.1789
-1.05674
27.9761
10.9383
3.24069
0.414429
32.7317
7.27019
7.92744
-4.89161
0.0982751
284.735
2.20484
8.22424
-3.36866
-0.868876
-0.697403
11.3845
10.4982
8.20036
14.0585
1.13342
-0.129655
-6.24373
-2.90059
8.26001
29.2021
-5.01095
24.5682
-51.7737
-91.8595
5.74095
14.7381
10.7718
12.4214
-1.3525
-3.92736
-35.8664
36.7372
9.79545
10.4644
7.47712
109.817
-52.378
-48.4398
4.0048
39.2647
12.2536
20.9516
5.8116
3.34992
17.3845
-14.8584
6.28656
0.321682
36.6041
8.67316
-77.9275
24.121
4.59984
35.7693
-1.79896
30.316
-0.514499
-5.73058
4.05531
10.1889
15.8785
2.37335
25.6255
-36.013
-8.46739
0.00265809
2.65058
-3.65131
11.9447
-5.41929
-0.0133648
-0.831499
87.8378
32.1201
1.58788
4.41425
10.5684
-50.8683
-47.9869
-10.3813
18.1313
-72.8568
39.0201
4.51764
-73.7444
28.2128
7.35557
-48.5008
3.28529
-64.1783
26.0281
-45.7524
13.4135
-78.5707
-0.0770746
7.94032
-2.46164
5.79308
11.5945
3.84203
1.60977
-11.4161
-7.39619
13.8984
11.7543
-37.2804
10.3486
0.712926
0.981374
31.8412
34.617
11.4437
-38.5749
-11.7043
-0.107954
5.9779
-134.046
9.88395
1.54466
21.5958
-4.46077
-49.998
-138.039
40.5375
29.2906
-3.16446
1.38885
30.0604
-74.9663
-5.16148
9.33789
16.9739
-9.90967
-0.849905
3.46244
32.2947
10.2168
12.3162
31.6266
-52.4119
-11.5035
-23.556
36.9427
-35.7286
-0.105177
35.5504
3.16575
-69.5542
-52.7762
28.8758
38.9438
-0.144024
4.91425
14.3924
-1.63143
11.5841
-12.1984
2.55385
34.5227
6.3633
20.5419
145.433
2.64956
35.4893
-0.00379077
6.32925
14.4898
17.4552
10.5523
15.1559
0.89341
1.25601
0.0379312
165.318
12.254
-11.8839
19.3389
-4.01401
0.0730327
-48.2895
5.19466
7.85194
10.9629
-11.2067
32.62
3.38229
1.32611
-0.276245
20.8508
3.9905
10.8664
16.3888
3.13971
38.6886
2.57772
22.081
-13.3019
-127.166
4.29224
19.0946
15.9835
4.79235
34.3268
0.0131424
4.0647
29.6053
19.7147
6.76513
-14.1046
1.78872
-3.05088
21.1574
8.23845
53.0712
35.2792
-0.679637
11.5535
-4.60958
1.30354
27.3938
2.46453
36.0579
11.8778
-7.86507
10.2012
23.8651
9.43425
4.52342
12.016
20.5099
3.72363
19.7823
-69.618
19.9126
45.3431
1.75722
-101.557
2.24924
0.818473
7.76086
3.61368
-2.06961
31.1725
-33.7205
39.2032
40.9355
-12.4977
10.3475
132.495
-0.39766
93.0012
-38.3214
-0.0316896
33.7178
0.727686
11.2111
9.14777
-1.0172
-4.81982
22.0185
10.651
33.7685
84.6108
2.92145
-1.87904
18.2398
2.55891
-14.5609
-90.7097
27.2244
-16.8368
12.6871
6.3572
22.3995
14.5995
24.8123
6.62054
35.0311
1.1493
-3.72472
10.0419
-40.6229
-0.257037
27.56
26.9265
29.5215
-7.22034
19.9349
-5.8075
-13.7768
6.67741
7.47097
39.1578
38.4067
1.86268
7.82561
2.2966
39.9081
9.90792
35.3384
11.5784
5.48002
10.1778
-8.29387
-0.692964
-50.84
-0.158288
-0.268736
58.6174
15.6984
147.701
0.35923
-0.328507
8.6236
0.212645
22.1192
43.0317
12.6091
2.79033
12.2677
44.2523
0.143705
12.7031
1.02115
0.127888
0.509797
18.8463
-5.89707
-4.8005
11.6736
1.4432
41.0299
0.602094
-4.68349
-18.5018
0.479605
1.21207
13.1008
-75.8282
26.1787
13.0792
65.1077
-0.905814
11.2844
37.7684
-2.09489
10.7597
-35.8948
42.7869
13.5352
0.0834238
23.9086
16.7894
-2.91462
29.5851
11.4014
18.2983
0.720292
4.27064
39.0933
167.356
-3.86008
28.6954
4.62681
-3.09343
16.3496
11.5666
-9.13418
31.37
-70.2689
1.48355
-8.55915
20.0969
-1.21952
2.56602
1.06639
-1.93196
22.0463
-23.044
7.7604
-141.935
-76.779
14.157
31.5878
-51.0128
23.5728
12.1366
36.1713
50.627
39.5892
4.13246
279.038
-35.1937
16.6442
5.81456
6.75735
-9.49983
19.8968
-15.7135
-16.8515
-5.21212
17.2651
13.2083
-84.9391
-34.2993
-12.3685
5.14783
-10.177
-5.25558
-38.3652
8.33747
10.6158
24.1368
4.24753
37.911
13.1691
-7.84573
3.68608
-11.5561
10.7129
11.3419
15.4646
-5.55636
-32.7277
2.93342
-0.60391
-2.90686
64.9534
2.90977
18.7357
2.06161
20.5618
4.24348
21.309
12.3159
24.3018
10.8442
-40.612
-3.32108
-210.397
37.9757
-0.814277
-1.69312
15.0237
-37.6131
-1.12818
-8.39594
2.23532
4.57044
-10.1865
-0.530717
54.1776
7.66303
10.5378
-4.76971
-9.81215
-56.4125
11.4584
17.8651
-10.2155
39.6861
0.444116
32.2293
35.0438
79.2931
22.1347
9.38772
6.49003
25.1716
4.1812
14.1512
19.9602
5.35271
8.07456
13.084
11.1025
41.5726
46.34
-22.2158
11.8423
27.4239
28.7555
29.9252
6.1828
42.5967
-1.9329
17.9437
12.7887
12.1181
14.5131
4.86052
-14.144
1.52058
-18.528
-60.8577
5.19389
17.2647
-4.45656
-3.66432
-53.6391
-67.4526
8.76113
2.91107
21.4006
12.1828
-41.3231
11.5067
11.1611
4.49158
19.6112
4.04092
5.77082
4.16224
1.63209
-109.451
-1.59058
1.83455
48.2596
45.8396
-0.840579
-20.8374
-1.85188
8.71685
10.0089
-26.1647
32.6592
27.5185
23.2212
28.253
13.0239
22.2911
-59.5017
3.33019
11.0058
1.65043
-11.7485
4.24782
4.18631
0.803252
5.74472
-9.82955
-51.1451
-11.6258
-0.131828
9.54427
-6.63777
23.7181
-1.9725
-4.2272
10.1087
-65.1581
31.7136
11.393
31.1508
4.35271
1.53258
39.3577
-46.6445
12.99
8.28214
66.8504
5.93637
13.9328
0.792151
36.7012
-0.575071
9.04789
24.1705
-32.4328
-0.759499
5.53577
39.5048
-0.340807
6.82567
-6.38098
-0.974118
12.7871
-113.38
-5.15541
17.0414
2.88987
-4.68728
4.97182
-10.024
-6.98747
20.6953
19.4936
29.2069
10.9812
0.327836
-3.16814
-15.9609
-1.93831
29.4591
30.3684
76.5749
-6.897
7.43524
1.55348
70.1469
-49.4869
-4.39492
-16.4216
38.502
41.419
9.25756
14.8813
10.8115
59.589
-36.1217
13.8989
19.72
5.60366
12.2995
-2.98919
6.18138
18.2153
-4.85244
1.73527
-17.9334
10.9359
-168.215
-3.18783
-52.4142
-2.01943
16.8479
2.74603
41.4393
2.61848
-3.94958
24.9542
-26.464
-35.0239
-9.01991
-36.9777
3.77888
-1.8854
54.5308
-55.197
24.9355
-74.9131
-1.21182
20.573
-16.0513
1.55194
11.2622
8.88367
1.65477
6.89896
11.2969
-65.403
4.7925
11.4762
-39.701
-39.9652
39.604
11.513
3.81198
5.33687
32.6564
11.4643
15.5093
19.4747
18.059
13.1414
-0.439354
4.58719
-20.996
3.8523
29.9106
18.8494
-1.37085
9.11863
-2.43765
-6.371
25.0748
12.3324
9.81256
43.6742
9.58745
3.00126
-21.1162
-2.68287
-88.6128
4.26774
19.9185
15.9931
2.79639
8.52936
3.73282
9.20222
-2.20742
2.6865
20.9729
-4.31857
13.4633
4.34754
0.660323
94.7624
8.68843
2.98241
-44.604
-64.4496
10.6087
16.8151
37.0653
-2.12348
-0.285092
47.637
-15.649
10.0272
-4.13918
-114.157
3.39157
-0.299761
-29.4851
3.91645
12.2408
27.2121
-99.6036
-1.54236
3.00987
7.53851
2.07565
26.2424
13.7329
13.3156
18.6625
12.2631
7.69181
37.8933
-13.4631
31.958
11.7814
-40.0966
111.302
-23.8684
6.73879
-47.2542
25.6149
12.7715
-0.717331
-17.9823
21.1064
11.807
3.44231
12.6659
6.63052
7.24908
32.547
-1.46559
11.716
-67.0475
2.57079
-62.9511
40.9719
17.579
-81.2334
19.6499
-12.1949
-41.549
32.6097
10.8951
-0.956772
23.1604
8.17088
26.0316
-38.084
37.0583
23.0988
-0.479214
18.2954
7.30806
4.06014
0.0719857
-0.264595
1.34037
-60.9853
39.6692
8.20644
9.55735
-7.08342
16.2483
27.8267
3.47669
10.2145
2.78859
-45.332
3.37367
12.3234
-14.9265
3.5943
24.6063
32.949
0.46604
-2.17425
2.55968
-27.5493
-0.976231
4.12171
11.7783
-1.58523
-1.12944
-36.7203
-18.6913
30.035
-0.729179
3.8747
-67.3978
-74.1338
39.5193
35.4359
10.0546
36.1943
42.7406
-0.275848
32.5708
10.6486
254.015
-11.848
-73.2687
10.9885
3.77555
-2.22523
30.09
11.7116
0.530577
11.4965
1.80672
17.6103
-9.69244
22.7321
6.47897
0.699197
-42.4633
12.1924
-5.79277
11.3907
-20.7777
3.75832
11.072
-0.336534
-77.0295
-1.2344
-0.671132
3.29532
-3.06615
18.0013
1.75643
23.9049
8.59472
-3.8961
34.2389
5.80568
4.37775
18.3234
34.4828
4.14632
40.6039
-5.1694
7.52225
6.48038
4.41666
-3.1425
26.9308
5.15648
62.2579
10.2473
8.29126
3.07601
2.12857
-8.54091
-4.26848
16.9314
7.71981
24.0887
11.2341
15.3575
-11.9848
19.1244
-0.960914
-3.88487
-36.5447
-78.6068
8.5642
2.2045
-2.83311
7.35453
-1.3922
-106.974
12.0539
-12.8023
28.5957
-2.58721
-5.95221
29.7143
-6.9124
17.9661
1.75458
31.9565
13.2159
20.5997
-19.5156
2.70372
30.4966
20.992
8.29747
14.0448
1.00336
-8.87396
-0.521489
-1.43978
9.62127
9.79753
19.6268
5.33347
9.70577
6.98245
28.0725
7.23411
12.8686
30.7888
5.10552
-0.50775
53.3033
2.6532
60.5994
1.78001
13.0418
6.78637
11.5937
5.79957
49.1011
0.37437
-160.256
26.9363
0.00790935
0.298259
-116.522
0.824554
71.6317
11.3119
28.1527
-9.60684
10.4331
12.4205
11.285
6.02298
-2.39119
10.6156
-11.8576
-7.55534
-21.0952
21.6264
6.71894
8.94438
1.40408
-2.89981
-45.9024
18.971
19.6266
3.53572
46.2645
4.98682
100.019
-51.5397
-39.1846
13.9027
-4.9616
16.7469
-16.569
-104.822
-55.3255
23.2884
12.0542
10.4615
34.5508
-1.12331
38.0444
2.79138
12.102
28.0352
7.86017
-5.05552
24.1412
272.253
-149.818
-72.4557
-6.85729
38.394
-2.48265
21.7497
12.3749
3.89738
-2.70383
-0.0930256
17.9275
-39.3157
-0.361805
-12.1861
23.7594
3.19766
-7.06185
3.01896
12.9629
-37.1913
-13.2858
2.02244
-5.19007
20.7054
75.7411
28.5794
18.7543
-37.2045
13.8434
34.624
15.4646
-84.827
-68.0123
-19.615
-15.4701
-12.1636
-17.8172
18.9803
29.6015
-4.25451
4.26329
-9.94568
33.5255
5.50646
1.73043
9.15137
-9.17602
1.99274
4.83393
14.277
-4.58731
2.73784
149.569
2.79479
6.67476
34.1325
23.3929
-24.3157
-16.859
31.9792
38.0304
3.36014
11.3058
0.862589
-17.0006
13.0443
3.69428
-10.5123
1.64064
-2.62259
34.9226
-35.1803
-13.9179
6.19175
7.15991
-3.35575
-3.88077
17.5425
3.88714
18.8782
-0.977905
-2.47375
24.0264
-20.61
11.2994
30.1325
-34.8062
9.38849
27.8555
9.52198
2.15622
2.39956
0.423913
11.5912
-3.0474
-79.7821
14.8975
14.0282
36.3776
-20.0115
13.9274
1.7629
11.7685
18.2678
21.906
3.55535
22.3162
5.34705
6.359
33.4475
7.7539
-1.05816
-1.4169
29.2985
4.25824
-10.0776
16.4892
8.55649
10.8623
12.6646
-9.53118
-13.0567
6.05156
-48.5572
-74.0117
28.8789
9.51553
8.51376
60.5995
-0.199231
2.18415
12.6668
21.236
31.8787
11.5542
-12.945
34.9492
6.18601
100.445
-0.0190238
-7.57945
-4.59292
-33.0457
-3.64241
8.2673
2.4144
-0.3258
-43.444
0.454834
-1.54435
41.6289
11.3024
0.0224568
-14.402
18.7742
-17.8538
9.19894
-78.6693
1.54907
-0.572446
32.0482
20.8186
25.8132
-0.516965
-10.262
3.76424
13.2507
40.476
26.7198
11.4555
19.4324
4.69523
2.44816
4.84332
26.9601
16.6272
2.77866
-14.783
-2.56554
-20.5894
2.35605
-60.1963
0.400547
-5.69728
10.741
-24.3025
26.9763
13.0861
34.2493
-41.6699
-5.4914
33.3624
1.46268
-2.85117
3.29822
-0.451668
-0.464427
14.2678
-36.3943
-4.6005
19.7623
-0.0461961
14.795
12.4762
-35.0984
8.84268
39.1452
22.2801
-39.9617
10.7137
37.8087
-51.7314
18.4886
-29.6246
-52.044
1.10813
91.4241
7.56231
21.8268
23.8023
21.5625
4.81551
21.4237
-88.0398
9.93116
38.6319
1.8432
-4.38021
-30.0506
-94.647
11.7576
-59.1153
-16.2086
30.6701
-12.6739
-44.9288
12.0377
41.5202
32.8585
-4.8018
-1.20095
5.07794
-2.61753
-6.14111
11.6289
25.6977
0.20355
-0.372264
23.0983
12.2868
-49.5516
-3.06439
9.04361
28.234
23.6384
2.52247
3.75553
13.8274
2.74411
30.954
3.88032
-30.5141
1.46853
69.2338
-32.204
10.87
-5.24956
-0.193036
-59.0163
2.36293
19.7246
6.16536
25.2973
-37.216
30.7331
0.797839
-49.4345
4.87508
-15.5243
6.88047
7.60997
0.105617
71.9018
0.205337
17.2628
23.3769
18.8083
25.6789
-90.0501
16.8035
28.4932
6.09763
-95.5142
10.2918
110.359
5.00052
3.48126
19.9343
0.722
6.76421
18.75
0.254854
-47.3223
4.22236
148.716
2.313
-52.0569
18.4544
0.856515
3.02364
-0.00551976
11.4172
-0.792646
19.0713
-12.9567
84.0166
35.0408
10.6219
4.10819
7.09105
-2.20378
-2.90687
25.0673
20.0508
8.05986
31.9799
9.11205
-10.3628
59.4849
8.77109
1.03342
16.3035
0.224245
-2.7219
7.53198
5.80143
0.793077
-36.9457
33.8377
16.6397
-38.5439
12.8876
12.7689
-0.553479
1.00431
2.89125
7.74087
4.05043
17.1025
-0.272657
0.199292
2.7319
3.2322
18.7021
58.2063
-4.00542
8.05632
12.1149
7.6401
9.50486
3.86145
-34.1458
-3.49777
6.77948
-11.9931
-0.504795
9.53744
-36.6145
19.0248
-13.5615
-36.3977
-84.4778
27.9385
-87.8359
-42.4666
4.1889
4.12523
27.5124
-16.0513
4.64904
-50.9971
12.3937
4.4951
8.29307
9.1404
4.16983
9.24394
-46.6163
-29.2756
-6.02799
-2.69455
17.1375
-2.43641
28.8351
-50.1212
15.4796
9.44973
2.94114
8.17176
4.81597
12.9549
-0.569804
4.73596
-0.655276
-94.3123
21.6352
13.3474
-167.926
16.0119
11.2678
-4.16949
22.3355
-7.49126
7.37098
40.9381
22.8159
8.06445
7.11428
69.6216
5.32592
19.2901
-187.44
-39.5101
2.15233
40.5662
6.97998
13.4907
18.3522
7.34364
3.00644
-27.9501
-10.689
-7.99334
23.2845
12.6141
6.13534
0.312378
-8.70657
10.0086
10.6898
17.929
-20.2592
25.9217
82.4994
-47.1486
-2.14489
6.13114
11.3567
-40.7639
-1.54523
-1.2814
-30.9141
-0.778439
2.84423
41.3733
-1.64938
30.2584
6.19413
-25.4212
36.8235
1.18196
-7.18537
17.8012
7.48683
-8.70668
-6.07739
27.5516
30.3087
14.1442
-10.2076
25.5395
27.0909