/*--------------------------------*- C++ -*----------------------------------*\
| =========                 |                                                 |
| \\      /  F ield         | OpenFOAM: The Open Source CFD Toolbox           |
|  \\    /   O peration     | Version:  4.0                                   |
|   \\  /    A nd           | Web:      www.OpenFOAM.org                      |
|    \\/     M anipulation  |                                                 |
\*---------------------------------------------------------------------------*/
FoamFile
{
    version     2.0;
    format      ascii;
    class       surfaceScalarField;
    location    "759";
    object      phi;
}
// * * * * * * * * * * * * * * * * * * * * * * * * * * * * * * * * * * * * * //

dimensions      [0 3 -1 0 0 0 0];

internalField   nonuniform List<scalar> 
21699
(
-0.0211728
-0.00541388
0.0265867
0.0209096
0.00105772
-0.0219673
-0.0369142
0.0157413
0.0240958
-0.00318624
-0.0271033
0.00466726
0.022436
0.010684
-0.0159743
0.00529026
-0.0348752
0.0224778
0.0123974
0.000735283
0.00810688
-0.00884216
-0.00603745
0.00552295
0.0005145
-0.00393947
-0.00638967
0.0103291
0.0335533
0.00379697
-0.0373503
-0.0206132
0.0168649
0.0037483
0.0125591
-0.0270677
0.0145086
-0.0108645
0.00874266
0.00212184
-0.0148592
0.0429471
-0.0280879
-0.0435183
0.00941685
0.0341015
0.0816643
-0.0754523
-0.00621198
0.0367539
-0.0146866
-0.0220674
0.0213352
-0.0361945
-0.000276705
-0.000831016
0.00110772
0.0381623
-0.0198942
-0.0182681
0.00737085
-0.00239349
-0.00497736
0.0243882
0.0211618
-0.04555
0.0130943
0.025068
0.0502944
-0.016741
-0.058725
0.0408113
0.0179137
0.000789505
0.0407696
-0.0415591
0.0293478
0.0523165
-0.0115059
-0.00910732
-0.00246805
0.00547142
-0.00300337
0.0033245
-0.00355731
0.000232813
-0.0545136
0.0200963
0.0344173
-0.00736185
-0.0197414
0.0374
-0.0264782
-0.0109218
-0.0245489
-0.0159574
0.0405063
-0.0334093
0.0367157
-0.00330643
0.0537881
-0.0293998
-0.00878964
0.00952492
0.0391987
-0.030994
-0.00820474
0.00408365
-0.0101161
0.00603248
0.0444801
-0.0436906
0.00137306
-0.00384111
0.00595391
0.032072
-0.0380259
0.00715593
0.00102671
-0.00818264
-0.00531344
0.0159975
0.0214227
-0.00880942
-0.0126132
-0.0479316
-0.0107934
-0.000933839
-0.00570812
0.00664196
0.00281199
-0.00446518
0.00165319
0.00320118
0.00416967
-0.04683
-0.00768363
0.00886797
-0.00592923
-0.00293874
-0.00303781
0.000387888
0.00264992
-0.00662055
-0.0267887
-0.000513262
0.00332525
0.0154551
0.0237437
0.0326765
-0.0200157
-0.0126607
-0.0230102
-0.011865
-0.0395803
-0.00127397
0.0408542
0.00586309
-0.00180051
-0.00406259
-0.00876585
0.0458757
-0.0371098
-0.0302179
0.0114678
0.0187502
0.0555635
-0.0448721
-0.0106914
-0.0154454
0.04
-0.0340461
-0.000562044
0.0215953
-0.0210332
-0.0178852
0.0304443
0.000651432
0.00521166
0.00448596
-0.000505939
-0.00398002
-0.0139661
-0.0128806
0.0268467
0.00348097
0.00100499
0.0264348
-0.0452951
0.0188603
0.0313524
-0.0145384
-0.016814
-0.0140275
-0.00638998
0.0204175
0.0367839
-0.0687028
0.0319189
0.000572428
0.0238777
-0.0244502
0.0367839
0.00544838
-0.0402528
0.000672499
-0.00497221
0.00449657
0.000475641
-0.045208
0.00168973
0.00529335
-0.0298422
0.0198742
-0.0144529
-0.00542125
0.0127097
-0.00862609
0.00493854
0.00807928
-0.0130178
0.0201993
0.0172007
-0.0186473
0.0182972
0.000350134
0.00307025
0.00579773
0.0397603
-0.00918462
-0.0305757
0.0145462
0.0168063
0.0351431
0.00199007
-0.0371332
0.0051009
-0.00364293
-0.00145797
0.0195063
0.0131701
0.0213382
0.0154158
0.0449035
-0.0256037
-0.0192998
-0.00096985
0.00191092
-0.000941071
0.0383618
-0.0167657
-0.0215961
-0.00497905
-0.0523367
0.0573157
-0.0459991
0.0427965
0.00320267
0.00265919
-0.0161953
0.0135361
-0.0485983
0.0632781
-0.0146798
-0.0325343
0.0137874
0.0187469
-0.00934883
-0.0143979
0.0237467
0.015679
0.00924406
-0.0249231
-0.0624176
0.0378258
0.0245918
-0.0202743
0.0278769
-0.00760265
-0.0778135
0.032318
0.0454955
0.00376549
-0.00721134
0.00344585
-0.0181936
0.0228609
-0.0364297
0.0513748
-0.0149451
-0.0453277
-0.0199194
0.0217111
-0.0303355
0.00862437
-0.0488448
0.0684761
-0.0196312
0.0483234
-0.0362299
-0.0120935
-0.00416931
-0.028365
-0.00996631
-0.0053883
0.0153546
0.0315738
-0.0164647
-0.0151091
-0.00461957
0.038487
-0.0338675
0.00188556
-0.00316052
0.00127496
0.00576116
0.00161004
-0.0073712
0.034413
0.0161881
-0.0506011
-0.00541306
-0.0136614
0.0190745
0.0205535
0.0122951
-0.0328486
0.0320405
0.023523
0.0507367
-0.0307058
-0.0200309
-0.0248277
-0.0426684
-0.0669999
0.0386702
0.0283297
0.00620282
-0.00839427
0.00219144
0.0162446
-0.0384607
0.022216
-0.0215788
0.0157639
0.0058149
0.0191403
0.0288084
-0.0479488
-0.0180318
0.0125103
0.00552144
0.0306795
-0.0252517
-0.00542783
-0.000114482
-0.0180791
-0.00552793
0.0404501
-0.0349222
0.000458916
-0.00097187
0.000512954
-0.0183685
0.0383817
-0.0200133
0.0460166
-0.0299242
-0.0160924
0.0259896
-0.0148972
-0.0110924
-0.0297053
-0.0348602
0.0645655
-0.0188892
0.0347189
-0.0158297
0.0462972
-0.0124556
-0.0338417
-0.00617517
0.00524133
0.00713293
-0.0470509
0.039918
-0.0429167
-0.0240832
-0.0273837
0.00417518
0.0232086
0.0316117
0.00223757
-0.0338492
-0.00426178
0.00262577
0.00163601
-0.0286195
0.0229311
0.00568844
-0.0350061
0.0147319
-0.0189307
-0.0319926
0.0509233
0.00809031
8.75137e-05
-0.00817783
0.0253389
0.0321566
-0.0574955
-0.0223147
0.0170013
0.00261999
2.14209e-06
-0.00262213
-0.0602656
0.0445537
0.0157119
-0.0247662
0.0173187
0.00744745
-0.00239984
-0.000634811
0.00303465
0.04822
-0.00305487
-0.0451652
0.0121064
-0.0747609
0.0626546
0.0460555
-0.0313059
-0.0147496
0.011291
0.0358518
-0.0471428
0.0328362
-0.0416021
0.00648928
0.0251224
0.008702
0.0191601
-0.027862
0.00197877
-0.00338129
0.00140252
-0.00402116
-0.0491321
0.0531532
-0.00179707
0.00895299
0.0298793
-0.0242586
-0.00562068
0.0127404
0.0256214
-0.0291513
0.0613687
-0.0322174
-0.0109305
0.0073463
0.00358419
0.00503847
-0.00888846
0.00385
-0.000286793
-0.00158549
0.00187228
-0.00466731
0.00425434
0.000412972
0.00831158
-0.0048428
-0.00346877
0.0252384
0.0257904
-0.0510288
-0.00459127
0.00195305
0.00263823
0.0118681
-0.0315952
0.0197271
-0.0634633
0.0401638
0.0232995
-0.0434942
0.0161105
-0.0336884
0.0449527
-0.0112642
-0.0212864
0.00949485
0.0117916
-0.0152
0.00096566
0.0142343
-0.00140366
0.0131593
-0.0117556
0.000947521
-3.69447e-05
-0.000910576
0.0140733
-0.00913478
0.0644797
-0.0365767
-0.027903
-2.72938e-06
-0.0020318
0.00203452
0.0222161
-0.0292794
0.00706322
0.000736265
-0.000983939
0.000247674
-0.0730265
0.0423394
0.0306871
-0.00775485
0.00424637
0.00350848
0.0183337
-0.0362189
-0.00488228
-0.0025124
0.00739468
-0.0500563
0.0515224
-0.00146605
0.00483038
-0.00150589
-0.0196767
0.00682988
0.0128468
-0.000708172
0.00393923
-0.00323105
-0.00360298
-0.000658802
0.0578269
-0.0657943
0.00796741
0.00955409
-0.044904
0.0353499
-0.0439285
-0.0155914
0.0595199
-0.0536857
0.034755
0.0473051
-0.0157964
-0.0315087
-0.00646081
0.00102221
0.00543861
-0.0467845
0.0401576
0.00662688
0.0268347
-0.0329415
0.00610677
-0.0223245
0.0536437
-0.0313192
-0.00900487
0.0229181
-0.0139132
-0.0486346
-0.00231576
0.0509503
-0.0462544
0.0019024
0.044352
0.0143757
0.0324485
-0.0468241
0.0299955
-0.0241373
-0.00585819
0.00735133
0.0347622
-0.0421136
0.0251185
-0.0415108
0.0163923
-0.00864434
-0.0348499
0.00469183
-0.00551758
0.000825753
0.000880433
-0.000188179
-0.000692254
0.000535975
-0.00362523
0.00308926
-0.00897535
-0.0242522
0.0332275
0.0386051
-0.0164224
-0.0221828
0.0447088
-0.0284642
-0.0459596
-0.016458
-0.0193584
0.0398832
-0.0205247
0.00249524
-0.0511726
0.0486774
-0.0209147
-0.00930323
-0.000560467
-0.00255088
0.00311135
0.0637928
-0.0637928
0.00446732
-0.0533122
0.00350464
0.0249642
-0.0284689
0.023998
0.0175009
-0.0414989
-0.0316535
-0.0032779
0.0349314
-0.0437332
0.00692925
0.036804
0.0399884
-0.0135536
0.0115162
-0.00901392
-0.00250225
0.0242664
-0.0245333
0.000266898
-0.00187082
-0.00259436
0.0402565
0.00611044
-0.046367
0.0245916
0.0124887
-0.0370803
0.0194556
0.00730953
-0.0267652
-0.0499536
-0.000458319
0.0504119
-0.026434
0.016133
0.0103009
-0.00385815
0.00523121
-0.0181623
-0.000484946
-0.0162871
0.00632082
-0.0679926
0.051001
0.0169916
0.0560022
-0.0116687
-0.0443335
0.0821157
-0.0391303
-0.0429854
-0.00696833
0.0183607
-0.0113924
-0.000468093
-0.00313489
-0.0146702
-0.0313289
0.054909
-0.0453549
-0.0321705
0.0267393
0.00543116
0.00473769
-7.96892e-05
-0.004658
0.00978718
-0.00911412
-0.000673068
0.0165327
0.0133466
0.0430434
0.0390723
-0.054783
0.0183533
-0.0672429
0.0581933
0.00904959
-0.0109635
-0.0439291
0.0548926
0.04787
-0.0407371
0.0553896
0.000612573
-0.0091781
0.035608
-0.0264299
0.02734
-0.0278664
0.000526408
-0.055678
0.0772005
-0.0215225
-0.0420982
0.0787361
-0.0366379
0.0281806
-0.00872501
0.00362259
-0.0012477
-0.00237489
-0.00970706
0.0123663
0.0776732
-0.0507035
-0.0269696
-0.00113857
-0.0315428
0.0326814
-0.00578156
-0.00616265
0.0119442
0.017918
-0.020599
0.00268103
-0.0669764
0.0350601
0.0319163
-0.0208091
0.00748526
0.0133238
0.0107919
-0.00563971
-0.00515223
0.00492188
0.00128095
0.0745907
-0.0466029
-0.0279878
0.00339107
0.0074128
-0.0108039
-0.0134113
0.0252794
0.0367039
-0.0560264
0.0193225
-0.000977792
-0.0327107
-0.0186441
0.0239281
-0.00528403
0.0593999
-0.022696
0.0347291
0.042944
0.0339148
-0.0146745
-0.0192403
-0.00301625
0.0148567
-0.0118405
0.0648682
-0.049269
-0.0155992
-0.00509168
-0.00220799
0.00729967
0.0242639
0.00965095
-0.00455874
-0.0416781
0.0462368
-0.0202358
0.0212636
-0.0010278
0.00705988
0.00146929
-0.00852917
-0.00106863
-0.000573431
0.00164206
0.0488779
-0.0291676
-0.0197103
-0.00723609
0.000131173
0.00710491
0.0504179
-0.0692862
0.0188683
-0.0118173
0.0288435
-0.0170262
0.0358163
-0.081144
0.0395629
0.0350278
-0.00674277
0.0016511
0.00745318
-0.0114055
0.00395229
-0.00404227
-0.00411087
0.00815314
-0.0339649
0.0616699
-0.0277049
-0.0394936
0.0275386
0.011955
-0.010361
-0.00767077
0.0471476
-0.0327719
-0.0219672
0.0188915
0.00307577
0.0506824
-0.0575336
0.00685116
0.0551224
-0.0297835
-0.0353705
0.0524424
-0.0170719
-0.0221616
0.0607559
-0.0385942
0.0533295
0.00409558
-0.0574251
-0.00058821
-0.00385868
0.00444688
0.0202335
-0.0130202
-0.00721328
-0.0751313
0.0457765
0.0293548
0.0328048
-0.0518558
0.019051
-0.0046712
0.0236381
-0.0189669
0.0661018
-0.0414368
-0.024665
-0.00144844
0.000478593
-0.024823
0.02152
0.00330302
0.00693108
0.0045851
-0.000179469
-0.000490017
0.000669486
-0.00537798
0.0629696
-0.0575916
-0.0371529
0.0312225
0.00593041
-0.0269059
-0.0287737
0.0556796
-0.00114745
0.00357476
-0.00242731
0.0764074
-0.048584
-0.0278233
-0.00462577
-0.0361781
0.0408039
-0.0168152
0.0701446
0.0112648
-0.00419339
-0.00707142
-0.000356736
1.63481e-05
0.000340388
0.0733528
-0.0613467
-0.0120061
-0.0565371
0.0642812
-0.00774401
0.0108097
0.0207641
-0.0704497
0.05199
0.0184597
0.0309309
-0.0730291
-0.0152953
0.0197563
-0.00446096
0.0152369
-0.0161765
0.000939614
0.000313878
0.0101507
-0.0104645
-0.0359214
-0.0371051
0.00963702
0.0159525
-0.0255895
0.0125736
-0.058828
0.0206071
0.00538255
0.00576649
0.00628657
-0.0120531
0.0087799
-0.0298076
0.0210277
-0.067091
0.0289926
0.0380984
-0.000361625
0.0450519
-0.0446903
0.00274755
0.00235335
0.0329333
0.0319348
0.00512298
-8.96387e-05
-0.00503334
-0.00570132
0.00519538
0.0298075
-0.0707262
0.0409187
-0.0750954
0.061496
0.0135994
-0.0387898
0.028543
0.0102468
-0.0293057
0.0469311
-0.0176254
0.0214173
0.0268469
-0.0482642
0.0122859
-0.0530096
0.0407237
-0.00973033
0.000486934
0.0092434
-0.0416661
0.0371073
0.00446698
0.000270705
0.0686366
-0.026561
-0.0420756
-0.0116134
0.0344041
-0.0227907
-0.00290747
0.00344344
-0.0600901
0.0491266
0.0328265
-0.0341005
0.0217103
0.0231932
0.0043614
-0.00492187
0.0650695
-0.0609824
-0.00408709
-0.0213536
0.0385128
-0.0171592
-0.0241597
-0.0438329
-0.000389801
0.0226059
-0.012092
0.0260599
-0.0139679
0.0288784
-0.0131994
-0.0213071
0.0514643
-0.0301572
0.0570628
-0.0188323
-0.0382304
0.00915534
0.0108961
-0.0200514
0.013029
-0.0371901
0.0241611
0.02771
0.0171885
-0.0448985
-0.0284255
0.0140155
0.0144099
-0.0302828
-0.00188767
0.00816066
0.012188
-0.0203486
-0.0509436
0.0113773
0.0395663
0.0220153
0.0464608
-0.0108874
-0.00309945
0.0139869
-0.0305258
-0.00638834
0.0188862
-0.0536062
0.03472
-0.00462402
0.000998791
-0.0100649
0.0139861
-0.0153897
-0.0180237
-0.0283104
0.0463342
-0.0386479
0.0669501
-0.0283022
-0.0439285
-0.0259073
0.0346872
0.0347221
0.0112945
0.030725
-0.0666464
-0.0497554
0.0191208
0.0306345
-0.0399216
0.01147
0.0284516
0.00135503
0.0216431
-0.0229982
0.0022048
-0.0107276
0.00852281
0.00935311
-0.00567615
-0.00367696
-0.0119422
-0.0185037
-0.000610343
0.019114
0.0438787
-0.00955201
-0.0343267
-0.0127914
0.00661717
0.00617427
-0.0239396
-0.0511558
-0.0318264
0.0577516
-0.0259252
-0.0492085
-0.00435919
0.0535677
-0.0365682
0.0425862
-0.00601801
0.0280884
-0.0075349
0.00360095
-0.00418916
-0.0149332
0.0172928
-0.00235963
0.0224339
0.0436679
-0.0354369
0.0347319
0.000705077
0.0396546
0.011082
0.002059
-0.0283132
0.0262542
0.00257504
0.0161341
-0.0187092
0.0254858
-0.0641336
0.0377799
-8.85306e-05
-0.0376914
0.0178321
-0.0179833
0.000151223
0.0110642
-0.00609997
-0.00496422
0.0157438
-0.0134066
-0.00233721
0.00910784
-0.031257
0.0221492
-0.00237961
-0.0125536
0.0110774
0.0352199
-0.00823678
0.0132707
-0.00503391
0.0511446
-0.0259062
0.0187342
0.010385
-0.0291191
0.0567483
-0.0621263
-0.0178779
0.00272886
0.0151491
-0.0472502
0.0385887
0.00866155
-0.0308122
0.0202034
0.0106088
-0.00134923
-0.00165229
0.00300153
0.0064982
0.0203365
-0.0095595
0.034678
-0.00409935
0.0300107
-0.0259113
-0.0399391
0.0177149
0.0222243
0.0295047
0.011732
-0.0412367
0.018297
-0.0371862
-0.0516845
0.0368769
0.0148075
-0.00103886
-0.0142258
0.0152646
-0.00638511
0.00617682
0.000208297
-0.0159858
0.0347199
0.0814133
-0.0425425
-0.0388708
-0.00332179
0.0328265
0.0539816
0.0224258
-0.0287825
0.00542206
0.0233604
0.0109557
-0.0502724
0.0393167
0.00925147
0.0106227
0.0177481
-0.0363205
0.0185724
0.00681692
0.00149466
-0.00640594
0.0258505
-0.0194445
-0.00818123
-0.0111063
-0.0283873
0.0237474
-0.000747643
-0.0229998
0.0119456
-0.035536
0.0235904
0.0132997
-0.0107246
0.0326631
-0.0609108
0.0282477
-0.0261811
-0.013758
0.0435577
0.020922
0.0395377
0.00651781
-0.0360006
0.0548868
-0.034142
0.0523208
-0.0181788
0.0365762
0.00318412
0.000466672
-0.00105901
0.000592342
-0.0146643
-0.00557148
-0.00272909
-0.00330836
-0.0539378
0.0541409
-0.000203106
-0.00301898
-0.00319726
0.00621624
0.0456354
-0.0146345
-0.0310009
-0.0135517
0.00671823
0.00683344
0.021735
-0.0309131
0.0458089
-0.0305997
-0.0152092
-0.0250209
0.0244588
-0.0424989
-0.0105026
0.0530016
-0.0429781
0.0360066
0.0069715
0.00781036
0.0013536
-0.00916396
-0.0757119
0.00509287
0.070619
-0.0277401
0.0124945
0.0152456
0.0502765
0.0311368
0.0552035
-0.0337862
-0.00300731
-0.0235832
0.0265905
-0.0119167
0.0154448
-0.00352817
-0.00201072
-0.00437439
-0.0642258
0.0333802
0.0308456
0.00129906
-0.000353371
-0.000945686
-0.00161587
0.00170553
-8.96631e-05
-0.000641762
0.0445204
0.0281289
-0.0190211
0.00198873
-0.00199146
-0.0271968
0.00915828
0.0180385
0.045565
-0.0444812
-0.00108383
-0.0106244
0.02634
-0.0157156
-0.0247922
0.00691425
0.00763394
-0.000180758
0.0229202
0.0226457
-0.0455659
0.00180613
-0.0126706
-0.00296211
-0.0442881
-0.003989
-0.00766422
0.0116532
0.004845
-0.00217024
-0.00267476
0.0131269
0.008242
-0.0213689
-0.00907839
0.0160502
-0.00697176
0.0172244
0.0503113
-0.0135004
-0.0368109
-0.00223588
0.00799704
0.0141996
0.0241523
-0.0383519
-0.00293673
0.009505
-0.025591
0.016086
0.0619488
-0.055946
-0.00600282
0.0336061
-0.0572642
0.0236581
0.0424471
-0.0396716
-0.00277548
0.0117988
-0.0812299
0.069431
0.0289867
0.0183184
0.00145636
0.0259559
-0.0274123
0.0242997
-0.0359131
0.0579189
-0.0662317
0.00831278
-0.00811997
0.0283193
0.0103457
-0.0172193
0.00687355
-0.0237549
0.0379545
-0.0680506
0.058837
0.00921363
-0.0398331
-0.0140745
0.0539076
-0.0148019
0.0285744
-0.0137725
-0.0398651
0.0240688
0.00303972
-0.00256704
-0.00047267
0.000939682
-0.0225185
0.0439285
0.0213234
-0.0652519
-0.0525394
0.0173808
0.0351586
0.0616771
-0.017197
0.0124443
-0.00667782
-0.0149983
0.0297695
-0.0147712
0.0014903
0.0362896
0.00640333
0.0321854
-0.0309363
-0.0209247
0.0553378
0.0175058
-0.0137354
-0.00377043
0.0231223
-0.00465197
-0.0184703
0.033308
0.0140702
-0.0473782
0.00918744
-0.0225748
0.0133874
-0.000190536
0.000926801
-0.00551881
0.00907452
-0.00355571
0.0272646
-0.0272646
0.0728777
-0.0598971
-0.0129807
0.0615038
0.00752484
-0.0690287
0.000461646
0.00423018
-0.00558732
0.00890891
-0.0033216
-0.0221264
-0.0465764
0.047247
-0.0453446
-0.00128556
-0.00368665
-0.0239702
-0.0248105
0.0487806
0.0219708
-0.0245943
0.00262351
0.00161018
-0.0073183
-0.0296191
0.0183117
0.0113074
0.0262055
0.0123996
0.00698246
-0.0435507
0.0652659
0.00808691
-0.0164705
0.00549106
0.0109794
-0.0169303
0.0505363
0.00307092
-0.00066657
-0.00240435
-0.0533643
0.00666545
0.0466988
-0.0728661
0.0115194
0.0411486
0.0251699
-0.0663185
-0.00970393
0.00274706
0.00695687
-0.0203283
-0.00829123
0.0216177
0.00837781
0.0479343
-0.028794
-0.0343176
0.0529992
-0.0186815
0.0222024
-0.032775
0.0105726
-0.0071394
-0.0414952
-0.00806649
-0.00840398
0.0285219
0.0374781
-0.00455161
-0.00320324
0.0371468
0.00977795
-0.0469247
0.0429309
-0.0455297
0.00259884
0.0724672
-0.0505633
-0.0219039
-0.0025764
0.0126516
-0.0100752
-0.01808
0.0358281
0.0163757
-0.0333327
0.0169569
0.0550602
0.000284502
-0.0553447
-0.00456443
0.0549823
-0.0377501
-0.0010397
0.0240517
-0.0414573
0.0174056
-0.0138089
0.00684055
-0.0431523
0.0313488
0.0118035
-0.0353791
0.0463349
0.0448763
-0.0115683
0.00440354
0.0564859
-0.0608895
-0.05469
0.00609169
0.00731319
-0.0213407
-0.00862223
-0.0423214
0.0271752
0.0137319
-0.0409071
-0.00167363
-0.0177688
0.0194424
-0.00483457
-0.0187219
0.0235565
-0.03981
-0.0140803
0.0538903
0.0245482
0.00893281
-0.033481
-0.00128549
0.042363
-0.0410775
-0.0203644
-0.0430989
-0.0378309
0.0374693
0.0184528
0.0170137
-0.0354665
0.0210991
-0.00797223
0.00579499
-0.0028339
-0.00296109
0.00469397
-0.000290253
-0.00440372
-0.0427267
0.0294136
0.0133131
-0.00445072
-0.0052532
0.0220707
0.0286117
-0.0154244
0.022529
-0.00710465
0.0128924
-0.0336974
0.0208051
-0.00115802
-0.04052
0.0150131
-0.0429718
0.0279587
0.0360668
0.0188422
0.0190665
0.00116699
0.00493572
-0.0020128
-0.00292292
0.0309474
-0.0404153
0.00946791
0.0547314
-0.0277651
-0.0269663
-0.0455662
0.0608306
-0.0152644
-0.0269113
0.0152542
0.011657
0.0358404
-0.0203016
-0.0155389
-0.0125763
-0.0344078
0.0469841
-0.0300023
0.0115882
0.0184141
-0.00881459
-0.0037241
0.0125387
-0.0450473
0.0396335
0.000677466
-0.00358493
-0.0246767
0.0266475
-0.00197086
-0.0451492
0.0146635
0.0304857
0.0531458
-0.00625364
-0.0468922
-0.00539469
-0.0287245
0.0341192
0.00541321
0.0218317
0.0238037
0.0742963
-0.078085
0.00378872
-0.00069366
0.00115258
0.0583456
-0.0274635
-0.030882
0.040901
-0.00584649
-0.0350545
0.00593999
0.0214
0.0365619
-0.00810137
-0.0284606
0.043082
-0.00147459
-0.0416074
-0.00631949
-0.0149669
0.0368487
-0.0044294
0.0372342
0.0055328
-0.000838821
0.0262033
0.0466744
-0.000163694
-0.00145217
-0.0287329
0.061396
0.0613966
-0.0244137
-0.036983
-0.000389623
0.00236839
-0.00709894
0.055319
-0.0139364
0.0323892
0.0267928
-0.0180908
-0.0615847
0.00903821
0.0525465
-0.0441801
0.0430221
0.00500211
0.0602638
-0.0239186
-0.0029927
-0.00284693
-0.00729918
0.0101461
0.00875275
-0.0388987
0.030146
-0.0403357
0.0185863
0.0217494
-0.00391512
0.00581165
-0.00189653
0.00108182
0.024607
-0.0256888
0.017918
-0.031099
-0.00438658
0.0354856
0.00589567
-0.00249479
-0.00340088
0.000317068
-0.0155171
0.0455518
-0.0243699
-0.0211819
0.0211107
-0.000846668
-0.020264
-0.000103505
-0.00877661
0.0372847
-0.0285081
-0.00380967
-0.057775
0.0510175
-0.0202924
0.0513832
0.000634867
-0.0520181
-0.01892
-0.0468333
0.0657533
0.000825744
-0.00537736
0.00652291
-0.000753274
-0.00576963
-0.0348336
-0.00152215
0.0363558
-0.00805873
-0.00141373
0.00947246
0.0229503
-0.0155076
-0.00744269
-0.0340719
-0.0110774
-0.0138757
-0.00693833
0.020814
0.0555926
-0.0159379
-1.80296e-05
0.0217291
-0.0622283
0.072721
-0.0104927
-0.038515
0.0338954
0.000986322
0.0170287
0.0136508
-0.0167145
-0.00409457
-0.00220637
-0.0023849
-0.0312912
0.0301526
-0.0463252
0.0175428
0.000602147
-0.000385041
-0.000217106
-0.0227036
0.0257548
-0.00305115
-0.031726
0.0163881
0.0153379
-0.0318963
0.0105427
0.00531731
-0.00809168
0.00277437
0.000567073
-0.000613269
4.61968e-05
0.047452
0.00541
-0.052862
0.0027957
-0.00181642
-0.000979269
-0.00347017
-0.0079353
-0.0497554
0.0465922
-0.00177444
-0.0448178
0.0578504
-0.0451513
-0.0126991
-0.0563531
-0.0133995
0.0697526
-0.0317037
0.00702702
-0.00251774
0.000968768
0.00154897
-0.000804127
-0.0119531
0.0127572
0.0310952
0.00980573
0.00254715
-0.00493929
0.00239215
-0.0229559
0.0122248
0.0107311
0.0227775
-0.000407861
-0.0223696
0.0165641
-0.0100274
-0.00653676
0.0115058
0.0308004
-0.0423062
-0.0127835
-0.0120395
0.0433432
0.00292973
-0.0462729
0.00526264
-0.0341752
0.0289126
-0.0251793
-0.0505325
-0.0172641
0.00544682
0.0355259
0.0238881
0.0207012
-0.0445894
0.0311355
0.0326573
-0.0131039
0.00911491
0.0493762
-0.00382443
0.0321346
-0.00838717
-0.0187033
0.00327899
0.00219375
0.00975601
-0.0119498
-0.0104224
-0.0498071
0.0602295
-0.0604996
0.0604996
-0.00781673
0.0438835
-0.0140532
0.040365
-0.0263118
0.0298778
-0.0412727
0.0113949
0.00648979
0.0428864
-0.014064
0.00962834
0.00443565
0.0435964
-0.0190048
0.0644362
-0.0232876
0.0242542
-0.0582191
0.00140597
-0.0413275
-0.00166184
0.00670031
-0.0225902
0.00367538
0.0189149
0.000758188
0.00382967
-0.00458786
0.0216264
0.0149355
-0.0679041
-0.00990942
0.0198763
0.00663769
-0.026514
-0.036217
0.0222509
0.00365394
0.007138
0.000497086
0.00257384
0.0434005
-0.00899642
0.0208237
-0.0236594
0.00283569
-0.00562069
0.00938618
-0.0469838
0.0289038
0.0388135
0.00113755
-0.039951
-0.0010111
-0.0302459
0.0337753
-0.0302707
0.0107153
0.0406679
-0.0299966
0.0113536
0.018643
-0.000303369
-0.00189784
0.00220121
-0.0241106
0.0192761
0.031284
-0.0123199
-0.0189642
-0.0105694
0.0483951
0.042123
-0.0298371
-0.0194529
-0.0320154
0.0514684
-0.0010546
-0.00252198
0.00357658
0.00311412
0.0147617
-0.0178759
-0.0356761
0.0395966
-0.00392044
0.0158552
-0.0181743
0.00231909
0.0106593
0.0367927
0.00835291
0.0127578
-0.000649577
0.00846729
-0.00781771
-0.0206433
0.0336723
0.0348756
-0.0129667
-0.021909
-0.0063646
-0.0501725
-0.00253237
0.00302945
0.0240298
-0.00507492
-0.0190624
-0.066973
0.0512336
0.0157394
0.0187584
-0.0251643
-0.0582664
0.0262495
0.0320169
-0.0500563
-0.013528
0.023033
0.0689948
-0.0397484
-0.0292463
-0.0293535
-0.0348723
-0.0346317
0.0240171
0.0106146
-0.009922
0.0190773
0.011181
-0.00312633
-0.00805464
-0.069927
0.0343182
0.0356089
0.023819
-0.0319203
-0.0613784
0.0424584
0.0479377
-0.0233254
-0.0246123
0.0108426
0.00258029
-0.0134229
0.000862635
-0.0174976
0.016635
-0.0305492
0.0023848
-0.0106216
-0.0118831
0.0509563
-0.0390731
-0.0117358
0.0363515
-0.0246157
0.0108329
0.0462299
0.0647476
-0.0276008
0.0258879
0.0229281
-0.048816
0.0288618
-0.0318691
0.00741432
0.000219619
0.0259698
-0.0676359
-0.0110946
-0.00561993
0.0228402
-0.0214851
-0.0265457
0.0113428
0.0152029
0.0547016
-0.0297012
-0.0250004
0.00546882
0.00559537
0.030721
-0.0582994
0.0275784
-0.0478913
0.0283553
0.019536
-0.0103998
0.000913255
0.00948653
-0.0243081
0.00551761
0.0187905
0.0448344
-0.0423391
0.0294922
0.00576834
-0.0352606
-0.0175576
-0.0072086
-0.00870831
0.000208834
0.000170104
-0.000378938
0.00903268
-0.0525394
0.0192068
0.0427421
0.00922085
-0.0122371
0.00121531
0.0166168
0.0775574
-0.0367878
0.0269131
-0.0490747
0.000469053
-0.000169789
-0.000299264
-0.0346988
-0.00903437
0.0227909
-0.0315675
0.0431752
-0.0193563
-0.00346658
0.00211735
0.0328109
-0.0753098
0.0233271
-0.0259659
0.00263872
-0.0261273
0.0122516
-0.0173858
0.041274
0.00129799
0.0420452
0.0482407
0.00649064
0.00527249
-0.0213807
0.0107563
0.0384088
-0.00820847
-0.0302004
-0.0569347
0.069041
-0.0240504
0.0469705
0.0111661
0.0132688
-0.0244349
-0.0241364
0.00563265
-2.77935e-05
-0.00086977
0.000897564
0.00421654
-0.00141518
-0.00280136
-0.00365006
-0.0195439
0.0231939
0.00473214
-0.00699747
0.00226533
-0.00600689
0.0166322
-0.0106253
-0.0203599
0.011715
0.00864492
0.000428253
0.000710574
-0.00113883
-0.00144292
0.00332848
-0.0193664
0.0500874
0.0626839
-0.0453393
-0.0173446
0.00668809
0.00443652
-0.0111246
0.0420645
-0.030119
0.0120163
-0.0153313
0.00331503
-0.0245868
0.0300089
-0.0126619
0.0367135
0.00996822
0.0117593
-0.0217276
-0.0260402
-0.00240982
0.02845
-0.0118851
-0.00871388
-0.00160626
-0.0383517
0.039958
0.00415868
-0.00917144
0.00501276
0.00787665
-0.0294989
0.0216223
0.00129053
-0.00287006
0.00157953
0.0211945
0.0146637
-0.0358583
-0.0244276
0.0463077
-0.0300816
-0.0162261
-0.00403505
0.00186481
-0.0297482
0.0476088
-0.0178607
0.00577645
-0.01856
0.0334293
-0.000949533
-0.0324798
0.000336558
0.00582067
-0.00615723
0.0744448
-0.0353178
-0.039127
0.00713759
-0.00180834
-0.00532925
0.0337198
-0.0136609
-0.0200589
-0.0410705
-0.0260205
0.0233977
0.0240249
0.0232221
-0.0464215
0.0195156
-0.00689889
0.0648178
-0.014768
0.0340841
-0.0193161
-0.0376754
0.0390814
-0.0117347
0.00592081
0.00581386
-0.00551863
0.0071288
0.0432776
0.0310186
-0.0268501
-0.0294428
0.0562929
-0.0163631
-0.0100709
-0.045182
0.0387841
0.00639792
0.0618456
-0.0496845
-0.0121611
0.0482941
0.00586948
-0.0541636
-0.013919
0.0225669
-0.00864791
0.00165319
-0.014553
0.0128998
-0.0106438
0.00660148
-0.0234144
0.0522229
-0.0397128
-0.0249369
-0.0153988
-0.0250542
-0.0126212
0.0495687
0.0119351
-0.0430254
-0.0055931
0.0486185
-0.0244277
-0.00557461
0.0127135
-0.0216889
-0.0363344
0.0494094
-0.013075
-0.00618276
-0.00355296
0.00973572
-0.0613494
0.0109099
0.0504395
-0.00342312
0.00147799
0.00194513
-0.0220479
0.0161346
0.00591331
0.00198824
-0.00248723
0.000498997
-0.0265691
-0.00565297
0.032222
0.0335109
-0.037209
0.00369814
0.015263
-0.0404424
0.0249596
0.00240445
-0.027364
0.00169012
0.0107991
-0.0124893
0.00605656
-0.0136828
0.00762627
0.0355691
-0.041097
-0.0271407
0.00852196
0.0186187
-0.00799576
0.00518782
0.00280794
-0.0603313
0.0217187
0.0386126
-0.018194
-0.0125863
0.0307803
0.027403
-0.0391387
-0.000901688
-0.00161605
-0.055678
-0.00367498
0.00337161
0.0555361
-0.0481848
-0.0204304
0.0444554
-0.00455989
-0.00343587
0.0382936
0.0307011
-0.00103565
-0.00238747
-0.000990132
-0.00525641
0.00624654
0.0151924
-0.0119069
-0.00328546
0.0234058
-0.0224406
-0.000965244
0.0326572
0.00106255
0.0395101
-0.000730445
-0.0387796
0.00105095
0.00760232
-0.00865327
-0.0141186
0.016499
-0.00238043
-0.0258879
0.0229819
0.00290601
0.0285607
-0.020684
-0.0315801
-0.0306482
0.0209679
-0.0155272
-0.00544071
-0.0319741
0.0265794
-0.0101822
0.0110026
-0.000820335
0.0499614
-0.0396543
-0.0103071
0.055678
0.0104923
-0.0661702
0.0556951
0.0110361
0.00195917
-0.0129953
0.0320724
-0.0650374
0.032965
0.0166195
-0.0314214
-0.0277094
-0.0094435
0.00443845
0.00412576
-0.00856421
-0.0363891
0.0455369
-0.00914772
-0.0290195
0.0154915
-0.0043898
-0.0354753
-0.00575417
-0.0305802
-0.00281074
0.0377221
-0.0349114
-0.0486034
0.0122142
0.0157364
-0.0278731
0.0121367
0.000950526
-0.00335036
-0.0276828
0.0575605
-0.0160358
0.00218745
0.0138483
-0.0143628
0.0721897
-0.0274995
0.0274995
-0.0055995
0.0237706
-0.0181711
0.00243665
-0.00310322
0.0411565
0.00441664
-0.0455732
2.00133e-05
-0.055966
0.00106174
0.00023732
-0.0504832
0.0458574
-0.0416549
-0.0100295
0.0430251
0.0153205
-0.0374996
0.049582
-0.0120824
-0.0338537
-0.00912445
0.00304521
0.0365513
-0.00473796
0.00797705
-0.00323908
-0.0103049
-0.0323448
0.0426497
0.00480429
0.00603831
0.00301846
0.00206595
-0.00508442
0.0575828
-0.0457302
-0.0118526
0.00689565
-0.00550774
-0.00138791
-0.0522444
0.00247163
0.00246408
0.0279457
-0.0151404
-0.0128052
0.0264467
0.0160005
-0.0370206
0.0370206
-0.0155636
-0.00968809
-0.00564039
0.0395116
-0.0338712
-0.0243362
-0.00280449
0.00623759
0.00467632
-0.0109139
-0.016227
-0.00672887
0.0188499
0.00909579
-0.0585643
0.0246382
0.033926
0.00771134
-0.0395377
0.0386816
0.0388758
-0.0294794
0.00906481
0.0204146
0.0198868
0.0259221
0.000955656
0.0337362
-0.0160214
0.0343311
-0.0467728
0.0124416
-0.00174601
0.0464267
-0.0446807
-0.0119485
-0.00610555
0.0180541
0.0392431
-0.0385626
-0.000680564
0.0401795
-0.0429902
0.0176008
-0.0159476
0.00851995
-0.018881
-0.000903546
0.00796343
-0.0547744
0.0401389
0.0146355
0.000619067
-0.000798537
-0.000889141
0.00451174
-0.0526052
-0.0391536
-0.00873769
-0.0183747
-0.0238021
0.0421768
-0.00656978
0.0187651
-0.0121953
-0.0229812
-0.00340994
0.0489749
0.0339165
-0.0558818
0.0219653
0.0300015
-0.0403064
0.0381568
-0.0304784
-0.00767844
0.0282807
0.0611025
-0.00961119
-0.0514913
-0.0399637
0.0217698
0.00218075
-0.00284179
0.000661039
0.0127534
-0.00629993
-0.00645343
-0.00931697
0.0174776
0.0208523
-0.039227
0.0141503
0.0263926
0.0199151
-0.0143259
0.00831901
-0.00559403
0.0208483
-0.0293128
-0.00251161
0.0318244
-0.0346494
0.0586473
0.0689215
0.0469673
0.00373733
-0.0507046
0.051677
-0.0290312
0.00201734
-0.00326505
-0.050201
0.0158833
0.0533751
-0.0435972
0.0182083
-0.0171265
-0.00975549
-0.0280288
0.0377842
0.0572103
-0.0203334
-0.0476091
0.0338086
0.0138005
0.0161225
-0.0215356
-0.00570568
-0.00866449
0.0143702
-0.00787842
0.00422792
0.0036505
-0.0146938
0.0158464
-0.00115255
0.0114571
-0.0434497
0.00531731
0.00799562
0.0288155
-0.0368111
0.049607
-0.0663316
0.0167246
0.0437243
-0.0218756
-0.0218488
-0.0020085
0.0185999
-0.01008
-0.0128559
0.00236885
0.010487
0.000727638
-0.00109686
0.000369218
0.0412937
-0.028805
0.00858258
-0.0066773
-0.00190528
-0.00702898
-0.0566351
0.0636641
0.0271869
0.0108768
-0.0380636
-0.0375146
-0.00117693
0.0386915
0.0366958
0.00647942
0.00779873
-0.00528532
0.0152535
-0.0193692
0.0151348
0.00423439
0.00983681
0.00291656
0.0235651
-0.00136273
0.0125049
-0.0126194
-0.0462641
0.0170965
0.0599897
0.0187465
-0.018662
0.023475
-0.00481304
0.025788
0.0255868
-0.0196559
0.0473658
0.041287
-0.0560186
0.0147315
-0.0205793
-0.0199636
0.0405429
0.0028447
-0.00085646
-0.0363605
0.0427796
-0.00641908
0.00427147
0.0243583