/*--------------------------------*- C++ -*----------------------------------*\
| =========                 |                                                 |
| \\      /  F ield         | OpenFOAM: The Open Source CFD Toolbox           |
|  \\    /   O peration     | Version:  4.0                                   |
|   \\  /    A nd           | Web:      www.OpenFOAM.org                      |
|    \\/     M anipulation  |                                                 |
\*---------------------------------------------------------------------------*/
FoamFile
{
    version     2.0;
    format      ascii;
    class       volVectorField;
    location    "759";
    object      U;
}
// * * * * * * * * * * * * * * * * * * * * * * * * * * * * * * * * * * * * * //

dimensions      [0 1 -1 0 0 0 0];

internalField   nonuniform List<vector> 
14558
(
(22.6725 0.389942 4.92896e-20)
(21.9054 -0.125036 0)
(22.6871 0.407506 -3.42467e-20)
(21.9071 -0.13988 -1.03377e-22)
(21.0096 0.788708 -1.51671e-20)
(21.7865 0.171017 -9.17503e-21)
(22.4535 0.893944 2.13668e-20)
(21.8874 -2.90359 0)
(18.4468 -2.71398 0)
(21.9362 -2.35227 1.03463e-21)
(23.6813 -0.911083 -1.29609e-20)
(21.9275 -2.17914 0)
(21.7577 0.216372 -2.22179e-20)
(21.3173 0.570025 -1.0674e-20)
(20.7692 -0.223749 -1.07501e-20)
(25.6159 -2.53076 -7.21458e-19)
(25.0787 -0.0211106 0)
(22.1207 0.103549 1.32434e-20)
(20.4701 -0.207682 8.78698e-21)
(10.2568 -1.94881 2.40613e-20)
(22.1219 -0.21972 2.28839e-20)
(18.3872 -1.60415 6.27401e-20)
(22.0089 0.135913 1.59142e-20)
(22.1313 -0.219824 0)
(23.6749 -0.871269 0)
(21.9736 0.266619 -3.44555e-20)
(22.4734 -0.199728 -5.60265e-22)
(25.1343 -0.0258621 2.89877e-19)
(21.9571 -2.21341 0)
(15.6179 -1.28086 2.15173e-20)
(17.9559 0.0578522 5.48046e-21)
(22.5263 0.13011 -2.94117e-20)
(21.0648 0.796563 -2.62647e-20)
(21.9432 -0.599808 1.59029e-22)
(22.7993 -0.748762 4.96677e-20)
(22.7803 -0.611379 0)
(22.0131 0.13608 -4.0804e-20)
(21.9482 -2.86862 0)
(22.3682 -1.10018 -1.16465e-22)
(20.7679 -0.345828 0)
(22.4188 -0.204179 5.13845e-22)
(15.0512 -1.19306 0)
(22.5851 -0.0362109 -4.09598e-20)
(21.3312 -0.0555579 -5.6475e-21)
(21.8023 0.165537 1.72558e-20)
(21.7813 0.205204 -3.11359e-20)
(21.9745 0.249131 8.6075e-21)
(21.3052 -2.37411 -1.09685e-20)
(17.716 0.260994 2.11025e-20)
(18.4666 -1.58047 -1.48976e-20)
(22.5403 0.137799 6.34953e-21)
(17.9433 -0.221306 0)
(17.9438 0.725713 0)
(22.7227 -0.628284 0)
(17.9971 0.256259 -5.98797e-21)
(22.4249 -1.05626 -1.10831e-21)
(22.1116 -0.240578 1.08775e-20)
(22.5105 0.898165 3.13168e-20)
(22.5529 -0.459411 -5.17433e-21)
(19.7798 -2.03524 3.67233e-20)
(22.853 -0.0452269 -8.95301e-21)
(22.0731 0.818841 0)
(21.9816 -0.238022 1.91072e-20)
(21.9706 -2.3306 1.3823e-20)
(22.637 -0.0284019 1.31356e-20)
(21.7431 -0.466383 -4.14971e-21)
(21.7508 0.2304 2.59999e-21)
(19.6977 -2.00535 -3.08583e-20)
(20.4439 0.311574 -5.29138e-20)
(21.7307 -0.321385 1.57616e-20)
(20.4097 0.294261 3.56518e-20)
(22.3729 -0.0780098 3.99505e-20)
(22.1209 0.160078 0)
(22.0226 -0.267921 0)
(21.3248 0.933796 3.43467e-19)
(22.933 -0.451638 -8.54676e-20)
(16.7095 0.437108 -6.06596e-20)
(21.7785 0.191895 0)
(22.517 -0.439402 5.04036e-25)
(19.6786 -2.59987 -4.02105e-21)
(25.6337 -2.3986 7.59811e-19)
(22.8535 -0.732726 3.02669e-20)
(21.7299 -0.296256 -1.44633e-20)
(21.038 -0.327873 0)
(18.4548 -0.506538 -6.11927e-20)
(21.9468 -0.584275 5.75543e-22)
(21.7852 -1.1596 -5.62612e-22)
(17.9784 -0.237916 3.22738e-20)
(22.2276 -0.190145 0)
(22.1197 0.148468 1.45009e-20)
(26.0047 -2.37121 0)
(19.6305 0.268085 1.40629e-20)
(22.1184 -0.23691 0)
(22.1242 0.0896496 1.36751e-20)
(21.9876 -0.572057 -1.43971e-21)
(16.3526 0.769294 -1.99603e-20)
(21.6147 -0.723644 -3.35079e-20)
(22.0198 0.184339 3.58158e-20)
(21.8375 0.157569 -3.19653e-20)
(21.5555 -1.21712 -2.16478e-20)
(24.2297 0.259696 2.64031e-19)
(22.1517 -1.22398 -1.85997e-20)
(21.1297 0.126296 2.72227e-20)
(25.2648 5.72953 0)
(22.5265 0.021928 -2.85459e-20)
(21.5542 0.245341 0)
(24.0951 0.248753 -4.25508e-19)
(20.6302 -0.0630987 3.59456e-20)
(20.9505 0.700024 -4.28847e-20)
(21.8852 0.116009 0)
(21.7582 -0.159277 -3.24087e-21)
(22.4446 -1.07049 0)
(21.9711 0.0852379 -6.59891e-20)
(21.9244 0.158892 -5.01373e-20)
(22.1551 -1.27596 0)
(21.6591 -0.970272 0)
(22.0288 -0.785799 -7.58662e-21)
(22.4699 -0.226765 0)
(13.5328 -1.50769 -4.35133e-20)
(21.5174 -2.23225 4.17591e-21)
(26.3096 -0.0406249 -3.07858e-19)
(22.4276 -1.85276 0)
(21.586 0.345404 0)
(21.9928 -0.230705 -1.57026e-20)
(29.1366 0.233055 -3.56539e-19)
(22.4983 -0.152098 0)
(22.5511 -0.353538 -7.98182e-20)
(20.1719 -2.59018 -2.18704e-20)
(23.4327 -1.59694 0)
(21.7218 0.472489 1.90818e-20)
(23.0982 0.113385 1.20616e-20)
(20.1628 -0.235698 1.0905e-19)
(19.3355 -0.228891 9.64215e-21)
(20.9935 0.65068 6.19016e-20)
(21.9433 0.0832402 -5.97503e-20)
(8.54617 -0.871461 -2.94462e-20)
(23.698 0.725468 3.75767e-20)
(22.2161 0.0195573 2.18504e-20)
(22.0495 -1.2766 0)
(22.9442 -0.296296 -1.17725e-19)
(24.3926 1.97851 3.34861e-19)
(22.4962 0.213825 -9.90696e-21)
(21.3899 -2.37061 -1.51531e-21)
(22.2816 -0.171836 -1.987e-20)
(22.5603 -0.375184 8.49999e-20)
(22.8571 2.87101 -4.69524e-20)
(21.8942 -0.793529 -1.2516e-20)
(19.4042 0.563492 1.27589e-20)
(21.2877 -0.644713 -1.34142e-20)
(21.577 0.220794 1.4119e-20)
(22.2969 0.420472 0)
(21.4499 0.283971 -4.55162e-20)
(22.0531 -0.0362942 0)
(21.8291 0.169394 -1.53603e-20)
(17.2376 0.439456 -1.53662e-20)
(21.9096 0.178892 -1.26697e-20)
(22.4041 -2.24985 8.77419e-20)
(13.2352 -2.58454 0)
(21.9651 -0.0187753 0)
(22.9306 -0.200353 3.03481e-20)
(22.1278 -0.313561 -2.22048e-20)
(22.5618 -0.55408 0)
(22.9379 -0.0218997 -2.52508e-20)
(21.9484 -0.776856 0)
(22.6643 -1.41126 -3.72696e-20)
(18.3069 0.558755 1.12967e-20)
(22.0624 0.0621173 -1.86706e-19)
(21.359 -0.057469 1.30039e-21)
(21.0475 1.83545 -1.51811e-20)
(21.6366 -0.790825 2.811e-20)
(22.0002 0.0143748 0)
(21.6226 -2.4431 -5.12445e-21)
(20.9921 0.0456814 -2.87826e-20)
(12.4549 1.25795 -2.92851e-21)
(17.413 -2.62408 0)
(18.9008 -1.27245 -2.21463e-20)
(22.4753 -0.139768 -4.63859e-22)
(19.4671 0.376347 0)
(21.5549 0.540043 2.78916e-20)
(22.6201 -0.0415305 1.5448e-20)
(22.6523 2.94249 0)
(21.8429 0.335889 1.38383e-20)
(22.4259 -3.96011 -1.91692e-20)
(20.7907 -1.9082 0)
(20.3843 0.808198 2.65047e-20)
(12.3944 0.520604 -4.94721e-20)
(18.9159 -0.567075 -1.62486e-20)
(22.5017 -0.111026 1.37012e-20)
(14.0434 -2.06626 2.50884e-20)
(22.052 0.29197 -7.65289e-21)
(7.34581 -0.986031 -4.2763e-20)
(22.4657 0.563478 -9.16578e-20)
(16.359 -0.818066 4.19174e-20)
(21.7635 0.242149 -2.04751e-20)
(14.8519 -0.471466 -9.42079e-20)
(20.7503 -0.128593 0)
(18.2144 0.0950045 1.74034e-20)
(20.8415 0.708801 0)
(17.6528 -2.713 0)
(19.4788 0.606836 7.91362e-21)
(21.9582 -0.149057 7.20026e-21)
(21.9584 0.0308227 3.25918e-20)
(18.7954 1.15127 -1.82586e-20)
(22.2568 0.441324 1.58739e-20)
(22.8806 -0.37286 -5.44563e-20)
(19.6472 0.848095 0)
(21.77 -0.159456 -2.33254e-20)
(22.5777 -0.841832 -4.76153e-20)
(22.4202 0.0606905 0)
(22.8125 -2.44619 1.01574e-20)
(23.958 -1.7231 2.68806e-19)
(21.9217 0.0435584 0)
(21.9175 0.0820218 0)
(21.9217 -0.792967 -8.93517e-22)
(22.5109 0.973697 0)
(21.8181 0.0509521 1.90651e-20)
(22.5342 2.8708 2.11358e-20)
(19.8684 0.125388 -6.55094e-21)
(7.28819 -1.08188 3.44677e-20)
(16.7603 -2.7075 2.92613e-20)
(21.955 -0.112675 0)
(22.8639 -0.923709 2.62436e-20)
(23.4524 -1.51795 0)
(22.5546 0.030135 -8.17713e-20)
(21.7361 -0.090594 4.8266e-20)
(22.8601 0.0943905 7.66387e-20)
(22.1244 0.841927 -1.0491e-20)
(18.6755 0.189209 -1.16354e-20)
(16.1848 -0.0163477 0)
(21.9775 0.0708334 4.51841e-20)
(21.9076 0.000380348 -2.24131e-20)
(22.1674 0.224275 -2.82286e-21)
(22.5752 -0.224126 -2.35046e-21)
(24.1077 -2.39832 4.30764e-19)
(22.3979 -0.070585 1.33215e-20)
(21.3696 0.130518 -1.66154e-20)
(22.303 -1.72796 0)
(17.7113 0.291312 -2.17517e-20)
(22.6455 0.238211 -4.83848e-20)
(27.1829 -2.13175 -3.38748e-19)
(19.6817 -0.234191 0)
(22.1694 0.304653 3.58663e-21)
(22.2704 -2.11438 0)
(14.3975 -1.08902 -4.95054e-20)
(21.7907 -1.18106 0)
(21.5886 -0.985705 0)
(22.0525 0.281507 -1.75496e-20)
(24.6364 0.167349 -2.74793e-19)
(21.7778 -0.103849 -4.77808e-21)
(21.0302 9.70182 -6.01059e-21)
(19.369 0.615781 4.23463e-21)
(21.8482 0.161218 1.64036e-20)
(21.959 0.0258927 0)
(22.3817 0.375973 2.19064e-21)
(13.303 -0.859518 -8.36563e-20)
(21.3897 0.408406 1.92373e-20)
(21.0331 1.97459 0)
(22.3412 -0.515264 -3.88919e-19)
(21.891 0.125348 2.93571e-20)
(21.9955 0.0340804 -3.80584e-20)
(21.9963 0.0364224 4.07675e-20)
(22.2998 -0.165155 -3.29083e-20)
(24.5932 0.204087 5.16895e-19)
(22.5253 0.292912 2.40654e-21)
(21.8614 -0.651284 8.63899e-22)
(22.7462 -1.37351 -9.66317e-19)
(23.3836 -0.0609085 1.59324e-20)
(20.1037 -0.180549 0)
(14.1235 -1.37491 1.81807e-20)
(21.4508 -1.20542 0)
(23.6217 0.802119 -3.12397e-19)
(21.9545 -0.111093 -7.57766e-20)
(21.5265 0.425247 2.82115e-21)
(16.613 -3.54719 0)
(21.9463 0.113326 0)
(21.623 -3.56843 -6.48788e-21)
(19.7348 -1.60299 3.83487e-20)
(20.3172 -2.53529 -2.49083e-20)
(19.5892 -0.0612936 0)
(15.6665 5.94418 5.33248e-19)
(21.5614 0.578346 0)
(23.0773 0.861741 -1.85235e-19)
(21.8493 0.314182 -4.18417e-21)
(21.1741 -1.95866 2.81949e-20)
(23.1506 0.801873 1.94242e-19)
(23.6887 0.776352 6.91193e-20)
(22.6787 -1.56786 -3.44905e-20)
(20.4064 -5.06832 -4.38006e-21)
(22.4077 0.182945 -1.50866e-20)
(20.52 -0.237559 6.20668e-20)
(22.6335 -1.51654 5.96689e-21)
(21.9612 0.0729961 -4.5206e-20)
(20.6979 -0.0675843 -5.4275e-21)
(20.7244 -1.90775 4.53879e-21)
(16.6525 0.789623 3.64097e-20)
(22.5225 -0.239432 7.78021e-21)
(20.7193 -2.06644 9.33649e-21)
(24.716 0.146298 0)
(21.8983 -0.754904 -4.22238e-21)
(21.6312 -0.169681 1.89755e-21)
(19.8636 0.408581 0)
(20.3598 -0.236751 -7.63118e-20)
(21.1711 0.525117 -2.2128e-20)
(20.1426 0.840045 -6.2139e-20)
(22.1451 0.395624 3.01976e-21)
(23.5748 4.12113 -2.1519e-19)
(20.2637 -0.127575 -9.16296e-20)
(21.9169 0.0754803 6.2058e-20)
(21.1714 -0.835443 0)
(24.9501 0.216078 8.05702e-20)
(22.6676 -0.0136118 0)
(24.7311 -1.1411 7.17634e-19)
(23.4452 0.466375 -2.69682e-19)
(22.0137 0.102396 3.4637e-20)
(18.5357 -0.0353237 0)
(22.1076 -1.36954 0)
(22.0449 0.08916 0)
(22.1491 0.607386 8.01587e-21)
(21.7233 -0.495404 -1.7222e-20)
(21.9923 0.0228785 -1.59192e-19)
(16.0921 0.805461 2.54542e-20)
(21.4601 -0.569735 -2.63471e-21)
(21.3774 0.110097 1.67923e-20)
(6.62315 -1.59834 0)
(22.9807 0.0655971 0)
(24.6418 3.79793 0)
(22.4909 -0.0944391 0)
(19.7896 0.650891 -2.99331e-20)
(22.0241 0.0174304 4.92485e-20)
(24.6266 -0.420118 3.57866e-19)
(22.0177 0.114737 -3.18375e-20)
(19.6151 -0.354459 0)
(5.10666 -1.1153 6.24229e-21)
(24.6657 -0.517476 0)
(23.5374 0.0180074 -4.21494e-21)
(22.0261 -0.762115 4.16832e-22)
(22.656 -0.159346 -2.05747e-21)
(23.0681 -0.046846 0)
(23.1517 -4.14539 -8.08662e-20)
(21.9185 -1.47376 -1.01207e-21)
(21.5017 0.48496 -2.23991e-22)
(22.4241 0.516165 -1.19931e-20)
(20.8034 0.587759 0)
(21.9291 0.038732 8.0412e-21)
(22.0421 -1.25052 0)
(18.8113 -0.897798 -5.88406e-20)
(22.1768 -0.218282 3.00759e-20)
(26.2503 -2.87615 7.11632e-19)
(22.6551 0.156005 4.14285e-23)
(19.5969 0.238912 -1.50938e-20)
(22.455 0.172579 -3.89732e-20)
(20.6741 0.538387 -2.49328e-20)
(20.6302 0.315091 1.12022e-20)
(25.0688 0.199433 -5.64554e-19)
(23.8677 -0.423215 0)
(21.876 -0.390794 0)
(24.7445 1.91432 -2.68124e-19)
(22.2594 -0.108503 -3.98911e-20)
(23.3313 -0.0780127 2.22825e-20)
(21.3491 0.239377 4.64007e-21)
(21.9622 0.0676381 -6.32991e-21)
(13.1313 -0.753184 1.13677e-19)
(22.0056 0.0560277 1.48859e-20)
(22.5822 -0.659505 -2.79427e-21)
(16.1827 -2.63902 0)
(21.9971 0.0368591 3.64064e-20)
(22.5775 -0.510445 -1.08231e-20)
(21.9884 -0.551437 3.72821e-21)
(19.0245 0.20794 5.62755e-20)
(23.193 0.192916 9.46785e-20)
(22.4317 -0.703528 -5.30476e-23)
(22.046 0.264114 8.66278e-21)
(22.0611 0.277748 0)
(22.1683 0.245456 -2.30898e-20)
(25.2633 5.47724 0)
(22.0241 -0.215059 0)
(22.0557 -0.274537 2.4712e-20)
(21.7528 -0.0312376 0)
(23.7753 -1.49271 2.84124e-19)
(22.7114 -0.00358568 9.73302e-21)
(21.9361 -0.658919 7.96588e-22)
(22.3984 0.387413 -2.2689e-21)
(21.3786 -0.965781 2.80436e-20)
(21.9637 0.0134882 1.20543e-19)
(21.9656 0.092775 2.08273e-22)
(21.9306 -1.89053 1.94838e-21)
(22.7123 0.390693 -1.53965e-20)
(22.282 0.160367 -1.0257e-20)
(17.0636 -2.76557 -2.45356e-20)
(25.7725 -2.33309 0)
(20.4094 0.880328 0)
(22.6671 -0.65409 1.57449e-19)
(22.0223 0.0770541 1.29057e-20)
(15.1354 -0.0696478 3.94538e-20)
(22.188 -0.209757 -4.30521e-20)
(22.2211 0.00993834 0)
(22.431 0.451535 2.22269e-20)
(19.3981 -0.10371 -2.91804e-19)
(29.2052 4.27958 8.85086e-19)
(21.5719 0.0716574 -3.48634e-20)
(21.1494 -2.96831 1.83533e-20)
(20.7113 -2.61294 0)
(21.919 0.172489 4.63206e-20)
(21.8854 0.0328032 -9.17027e-21)
(22.3777 -0.453042 4.50072e-20)
(12.5605 -3.04945 1.67521e-22)
(23.7125 -0.423203 0)
(22.1823 -0.266109 -3.93326e-20)
(24.9835 -0.322922 0)
(27.0146 0.462811 -9.14789e-19)
(21.5689 0.373234 -1.54971e-20)
(18.8936 -0.0245524 0)
(21.6952 -0.157343 0)
(21.9944 0.0228872 4.04404e-20)
(22.3182 0.297772 -1.09029e-20)
(29.0532 -0.107334 3.54692e-19)
(21.3448 -0.364231 5.00834e-20)
(21.7189 0.357984 9.788e-21)
(22.0136 0.082874 1.2936e-20)
(25.2369 4.16598 -3.99551e-19)
(18.7573 -0.301839 1.14848e-20)
(21.3043 0.104946 0)
(19.8284 -3.50163 0)
(22.1722 0.476664 0)
(21.6882 -0.141105 0)
(22.4768 0.218923 0)
(16.4298 3.68691 -2.25959e-20)
(22.4984 -0.139357 -2.78213e-21)
(23.1464 0.280226 -1.00422e-19)
(23.7848 0.00915204 0)
(20.1696 1.1947 6.97078e-21)
(22.7169 0.0811329 2.68821e-20)
(21.9705 0.502943 -3.20167e-20)
(19.0901 0.677794 2.57854e-21)
(22.5815 -0.804962 7.27748e-20)
(21.8199 0.041709 -1.94856e-20)
(21.4218 -0.531276 8.44115e-20)
(21.9073 -0.227937 2.38495e-21)
(22.2838 1.55712 -3.23481e-21)
(24.239 1.89343 -2.19667e-19)
(24.4157 -1.37649 -8.39137e-20)
(21.62 0.0466389 3.05208e-20)
(16.677 -1.12213 -1.48157e-20)
(23.0997 0.274153 1.68115e-19)
(23.7125 0.18609 0)
(22.266 1.63989 0)
(22.052 0.0296449 -1.03356e-19)
(21.7043 0.733066 -1.0431e-20)
(22.0341 0.0311101 -5.16362e-20)
(21.748 -0.297828 -2.82379e-20)
(26.6576 -1.42089 -5.31185e-19)
(18.8373 -1.2093 -1.00659e-20)
(21.2613 -0.182788 1.02889e-20)
(22.036 0.0751293 -1.94695e-21)
(23.3461 4.01511 0)
(22.1987 -1.05174 1.48694e-20)
(21.6319 -0.179499 -2.05062e-20)
(21.7437 0.346135 1.11359e-20)
(23.3693 0.0227945 0)
(21.8922 -0.194193 5.04509e-20)
(22.5235 -0.112056 -8.96553e-20)
(22.113 -0.30175 1.26502e-21)
(22.3514 0.133357 -1.15387e-20)
(22.977 0.211046 6.35706e-20)
(22.2367 -0.185284 -3.02888e-21)
(9.35262 -1.3688 2.44449e-20)
(20.7264 0.00216105 -1.91044e-20)
(18.3753 -2.77666 -2.4972e-20)
(22.0627 0.33047 8.99478e-21)
(15.5295 -0.537495 5.42398e-20)
(25.3285 -1.13499 0)
(21.5522 -1.98041 -1.15342e-20)
(22.5253 0.308939 1.30776e-21)
(22.4321 -0.694246 0)
(21.7791 -0.456267 3.44036e-20)
(22.0083 0.0921259 0)
(22.2883 -0.50492 -9.54435e-21)
(21.4384 0.409976 -3.66088e-20)
(21.9983 0.0568834 -1.32792e-20)
(21.1106 -0.406768 -1.17241e-20)
(23.8019 0.168541 0)
(22.3 -0.108867 2.45822e-20)
(22.1352 -0.636643 0)
(19.9846 -2.66562 0)
(16.8524 -1.17332 -1.55526e-20)
(23.1131 0.126679 3.06474e-20)
(10.1376 0.403446 0)
(12.8637 -2.03459 -6.57493e-21)
(22.3869 -0.423942 -4.43098e-20)
(22.189 0.451694 0)
(14.4913 -2.12812 0)
(21.031 0.918708 -7.37012e-20)
(26.033 0.406814 -7.90728e-19)
(21.9709 -0.273682 -2.50401e-20)
(20.2406 1.04711 0)
(21.2191 0.484641 2.90196e-20)
(22.1678 -0.330948 -3.13755e-20)
(21.3593 0.574206 -1.80479e-20)
(22.719 0.0510075 2.83569e-20)
(21.6193 0.175839 1.42043e-20)
(18.3115 0.0199228 0)
(21.8694 -0.936354 3.49716e-21)
(21.6531 0.26393 1.23915e-20)
(22.5593 -0.217769 2.15331e-21)
(22.9365 -0.16722 1.49738e-19)
(21.5442 -2.19609 0)
(22.3102 -0.0460241 -4.55457e-21)
(22.0475 0.310607 0)
(20.9369 -0.076218 1.33989e-19)
(24.8633 -0.214515 7.9827e-20)
(22.6037 -0.136586 -2.45121e-20)
(22.2173 -0.148593 0)
(23.3275 -0.0718669 -1.93274e-19)
(22.9022 -0.3026 -5.41286e-20)
(21.7477 0.162211 2.88911e-21)
(22.5989 -0.714806 2.48391e-20)
(22.0022 -0.0177158 -1.67995e-20)
(21.957 -0.575424 -8.76878e-22)
(20.6237 -2.63343 3.73398e-20)
(22.2871 -0.0539602 3.82863e-20)
(21.9953 0.0212486 0)
(23.7989 -0.760856 0)
(22.5534 -4.25392 0)
(22.8082 -0.377083 -3.93596e-20)
(17.7852 0.510538 -1.92241e-20)
(21.7256 0.496928 3.72722e-20)
(18.402 -0.399302 0)
(21.2782 0.173726 1.65314e-20)
(22.3797 -0.205872 0)
(18.1684 -0.826489 3.75769e-20)
(21.6031 -0.067834 -1.64901e-20)
(25.4059 3.8737 4.81787e-19)
(22.6936 0.109188 -2.88208e-20)
(22.891 -0.437472 6.26024e-20)
(26.1318 -0.075799 7.93188e-19)
(21.315 -1.2412 0)
(21.8999 -0.812113 2.01701e-21)
(21.8787 0.857157 1.47455e-21)
(21.656 -2.30916 -2.86166e-20)
(6.95714 -0.807411 -5.35708e-21)
(21.0384 0.148842 -1.41659e-20)
(17.2449 0.293567 7.18275e-19)
(25.2919 -0.0275 3.32106e-19)
(22.3839 -0.13228 -2.39796e-22)
(19.7565 0.0998208 1.46557e-20)
(21.209 -2.20018 4.44729e-20)
(21.2488 0.0716492 0)
(21.916 0.0524471 0)
(19.7581 -2.64389 0)
(21.902 0.141156 -2.71647e-20)
(21.2523 -0.324313 0)
(21.2566 -2.43489 9.43715e-21)
(21.8149 0.831803 9.62801e-20)
(22.9241 -0.868386 0)
(26.874 0.581683 7.8616e-19)
(24.5973 -0.51929 0)
(20.1709 2.24397 3.44107e-20)
(22.5437 -0.145609 6.47792e-21)
(18.7748 0.384783 2.11343e-20)
(22.053 0.167255 -2.85072e-20)
(24.8473 -0.45574 0)
(20.6412 -0.145083 6.01093e-21)
(21.3596 0.172845 -1.95849e-20)
(21.294 -0.573722 8.01025e-20)
(21.9325 -0.76372 -1.83963e-21)
(23.26 0.0950556 -2.8738e-20)
(22.7277 -0.0524859 -4.56138e-21)
(21.9071 3.44646 0)
(24.0253 -1.79713 -3.56225e-19)
(20.2314 2.12942 0)
(22.0002 0.0105034 -1.09134e-20)
(16.2647 -0.842089 -2.17582e-20)
(22.5658 -0.060364 -2.5461e-20)
(21.8935 -0.286088 -2.16973e-20)
(24.7672 -0.418299 -2.64173e-19)
(17.8401 2.69508 -1.06545e-20)
(26.4047 -1.39179 9.07033e-22)
(21.9504 1.0869 -1.21467e-20)
(24.3432 0.614605 1.60884e-20)
(24.8537 0.0577688 0)
(21.8748 -0.356472 0)
(22.0558 0.728838 1.03452e-20)
(20.6198 8.95902 0)
(22.4809 0.492965 -1.08728e-20)
(22.0903 0.0537653 6.07458e-20)
(21.9137 0.887796 9.24388e-21)
(23.0657 -0.0883262 -5.61223e-20)
(23.9145 0.233197 0)
(22.0189 -0.266931 2.39972e-20)
(21.9646 0.0121673 -3.71421e-20)
(22.2248 -0.195126 -1.92615e-20)
(22.4974 -1.53276 3.42421e-20)
(21.9931 0.788969 0)
(22.9734 -0.483407 -1.82111e-19)
(22.1976 0.700268 0)
(24.3398 1.1485 -1.55924e-20)
(22.6192 -0.037305 -4.64364e-20)
(22.7131 0.151484 -2.09968e-21)
(22.2708 0.385389 6.94252e-21)
(21.863 -0.914509 -4.21157e-21)
(16.0442 -0.0907751 0)
(14.6877 -1.03251 -7.54382e-20)
(27.6698 2.57296 -1.84933e-18)
(21.3617 0.193629 1.92362e-20)
(24.9258 0.122726 -3.4374e-19)
(21.8693 -1.37198 0)
(22.0492 1.09094 -4.63269e-20)
(21.9692 0.069022 -3.22915e-21)
(23.0514 -0.10681 0)
(21.9528 0.0262383 -3.08787e-20)
(22.0903 -1.34007 2.48745e-22)
(19.9467 0.500113 -1.38896e-20)
(22.2604 -0.166976 -3.28923e-20)
(22.3328 -0.14361 -1.13828e-21)
(22.5884 -0.101489 2.4406e-20)
(21.3334 0.536324 -6.77842e-20)
(20.7738 -0.389218 4.29053e-21)
(22.4443 0.0137447 6.44844e-20)
(21.9469 -0.198367 -2.2465e-20)
(17.758 -0.730942 5.13779e-21)
(22.68 0.336681 8.22503e-20)
(15.9203 -2.60774 0)
(21.6043 0.16261 -9.45622e-22)
(21.9532 0.791207 -3.10052e-20)
(21.9681 -0.273254 -4.09971e-20)
(20.2263 -0.158089 1.43676e-20)
(24.6073 1.83435 3.20888e-19)
(25.209 -1.25088 4.95478e-19)
(22.8869 -0.0929446 -3.78359e-20)
(8.2117 -0.775687 -2.9485e-20)
(21.8915 -0.19583 -9.06402e-21)
(22.939 -1.10056 -4.58221e-20)
(21.8825 -0.640556 5.80385e-21)
(22.172 -0.608835 -2.91516e-20)
(21.2253 -0.118348 0)
(22.0923 -3.98441 -9.81917e-21)
(22 0.00883806 0)
(22.1377 0.641606 -9.00388e-21)
(14.4077 -0.956772 2.24969e-20)
(25.2942 -0.0453791 0)
(13.0633 -2.07225 -3.86208e-21)
(23.4523 0.128997 -2.08807e-20)
(22.5188 -0.122031 0)
(18.134 0.559205 0)
(21.9785 -0.0221497 1.04021e-20)
(22.2758 0.363211 -3.22265e-21)
(22.7045 -1.36271 7.21804e-20)
(24.6009 0.571936 1.32606e-19)
(21.9688 0.0736995 5.21473e-20)
(24.6744 -0.502852 0)
(21.3753 0.510062 -1.32235e-20)
(21.585 -1.77987 1.42395e-20)
(22.2418 -0.152446 0)
(22.3863 1.01724 3.45244e-20)
(17.4701 -2.15866 -4.17277e-20)
(21.9696 -0.286812 0)
(11.4267 -2.73976 -9.27021e-20)
(22.4059 -0.00759325 -1.88276e-20)
(20.0671 0.202929 0)
(20.7958 -1.77437 0)
(22.0226 -0.0849465 0)
(20.5467 0.10208 -5.1749e-20)
(7.02103 -0.963621 -3.50929e-20)
(21.8291 0.127948 0)
(24.5314 0.590123 -1.8496e-19)
(22.4917 0.422238 -1.77733e-20)
(24.3672 0.455206 2.951e-19)
(21.9973 0.0474759 3.12679e-20)
(16.6595 -0.928633 -4.16865e-22)
(19.9117 -0.01477 0)
(22.0243 -0.397407 0)
(21.5231 0.290663 0)
(24.681 -2.99266 0)
(21.9535 0.746424 4.99384e-20)
(19.8983 -0.173234 1.21076e-20)
(29.4192 -0.224704 7.20475e-19)
(22.4629 -1.04141 0)
(23.2384 0.164184 0)
(22.4874 -0.198462 0)
(18.2458 -0.0138824 1.83356e-20)
(19.2465 -0.231129 8.63807e-21)
(21.7569 -3.61244 1.05565e-20)
(19.496 0.42033 -1.28793e-22)
(21.9763 -0.104978 5.16899e-20)
(21.7053 0.676143 5.76127e-20)
(7.78565 0.562945 8.08571e-20)
(21.9441 0.61571 0)
(21.8909 -0.695603 0)
(22.4028 -0.769782 -2.18103e-21)
(11.1813 -2.52326 -1.30005e-20)
(6.90271 -1.26114 -3.53697e-20)
(24.5996 -1.82355 -3.76241e-19)
(5.24678 3.83755 1.18567e-19)
(21.2078 0.545898 4.36825e-20)
(14.0916 -0.113631 0)
(25.9792 0.761142 -2.60942e-19)
(22.4882 0.0717675 1.43437e-20)
(22.007 0.15554 0)
(21.6217 0.185239 -1.46605e-20)
(15.0561 -2.35076 -1.81332e-20)
(21.1715 -1.12702 -1.46144e-21)
(22.8809 -1.08888 1.57659e-19)
(11.9863 1.03436 0)
(20.409 1.30359 0)
(21.1673 -0.0916893 1.73333e-21)
(21.5713 0.575083 0)
(22.5363 0.677818 0)
(21.5199 -0.584656 0)
(24.1748 -0.85275 -2.78574e-19)
(22.5093 -0.751748 0)
(22.0054 0.0335478 3.90665e-21)
(21.9057 -0.761506 0)
(22.4776 0.0612458 0)
(22.8013 0.855728 0)
(21.8732 -0.172426 5.6092e-19)
(21.6382 0.181245 -2.69975e-20)
(22.0256 -0.106336 0)
(22.1583 -1.03413 1.68254e-21)
(21.8933 -1.39174 0)
(18.6935 6.90068 0)
(24.6827 0.0575317 4.84035e-19)
(15.0278 0.04348 1.34504e-19)
(21.9526 0.0235245 8.30888e-20)
(20.5639 -0.311885 -1.11392e-21)
(22.0612 -0.220288 -7.12735e-21)
(22.05 -0.109407 2.25172e-20)
(21.6934 -2.73772 -1.40211e-20)
(26.8097 -2.05858 -3.96426e-19)
(20.7133 -0.179065 0)
(22.1557 0.369472 0)
(28.772 4.64093 -1.76639e-18)
(20.8994 0.0289286 3.51802e-20)
(22.5407 -1.44514 -3.52772e-20)
(20.8866 0.159232 0)
(22.2475 -0.605979 -2.20263e-20)
(24.0397 0.134293 1.70379e-19)
(21.3511 2.52364 0)
(21.7632 -0.310596 -5.5874e-20)
(19.7046 -1.55343 1.67571e-20)
(18.6853 0.347755 -1.11451e-20)
(22.6106 -0.604926 1.1572e-20)
(21.9995 -0.906488 1.09061e-20)
(20.8114 -0.0618752 3.26269e-21)
(26.2547 -1.20536 0)
(25.6849 0.66644 4.60299e-19)
(22.1883 0.494591 -1.2244e-20)
(21.9173 -0.00134869 0)
(24.4186 0.395488 -1.41785e-19)
(22.8917 -3.0156 1.1499e-19)
(16.1737 -2.44334 1.97058e-20)
(21.9829 0.754614 0)
(22.7422 6.34819 4.19687e-20)
(22.6972 0.0282703 0)
(22.0269 0.041143 -3.94127e-19)
(23.5479 -0.0515436 0)
(20.0353 0.585432 -1.54428e-20)
(20.166 -0.502998 -7.43293e-20)
(23.2921 -1.51583 1.91846e-19)
(19.2849 1.1018 -1.00537e-19)
(24.4608 -1.80556 7.61764e-19)
(20.4828 0.0185013 -2.49428e-21)
(21.5069 0.317186 3.34546e-21)
(23.7663 -1.43277 1.45788e-19)
(22.0869 0.118509 -1.47203e-20)
(23.441 0.0671282 1.16371e-20)
(18.4228 0.315848 -3.39067e-20)
(21.2646 -0.365953 0)
(21.9273 -0.808875 7.43462e-22)
(22.0345 0.113953 2.03582e-21)
(21.6037 -0.201173 9.42812e-21)
(22.0941 -1.28598 0)
(22.2672 0.0483664 1.53355e-19)
(13.6894 -0.015768 0)
(20.9666 -0.148217 -5.63961e-20)
(22.6734 -0.233046 7.46627e-20)
(23.127 0.117116 4.78322e-22)
(22.2106 0.400819 7.97189e-21)
(21.7748 -0.0273242 0)
(17.8126 -3.5374 -2.52443e-20)
(21.9626 0.0518717 1.20873e-20)
(22.1344 -0.650766 0)
(21.9964 0.0442627 -6.8036e-20)
(21.7303 -0.0368776 0)
(20.6364 -3.11923 -3.84773e-20)
(22.3611 -2.08481 -7.62689e-22)
(25.4105 -0.029451 -3.98462e-19)
(16.2534 3.23032 1.84112e-19)
(22.7315 -0.021394 -1.77454e-20)
(22.2379 0.842851 0)
(22.0606 -0.264414 -7.1701e-21)
(22.6947 -0.0397159 0)
(22.4026 -0.129385 7.83175e-21)
(22.173 -0.632748 0)
(21.164 0.468072 -4.13301e-22)
(21.9684 0.0561013 -2.46736e-20)
(21.7304 -3.7345 -1.96162e-20)
(21.5872 0.0517671 -1.61856e-20)
(22.3708 -1.58995 -2.59605e-20)
(22.5316 -0.318019 -4.48719e-20)
(21.3072 0.0850531 -1.89687e-20)
(22.1346 -0.205274 -1.37617e-20)
(23.6427 -1.30625 5.4549e-20)
(21.4857 0.25256 -3.30814e-21)
(21.934 -0.299775 -4.44507e-20)
(23.3065 0.107579 -1.99455e-19)
(25.3447 -1.94395 0)
(22.4535 -2.29738 2.74514e-20)
(21.5205 0.314036 -3.21377e-21)
(4.77306 -1.158 -2.49727e-22)
(23.3969 -1.48045 0)
(15.302 0.137157 -5.36456e-20)
(24.8183 -0.275547 3.09773e-19)
(19.9909 -5.61811 -1.60197e-19)
(18.7392 -0.334711 -1.19444e-20)
(22.5271 -0.187479 0)
(23.5209 0.410218 0)
(5.10212 -0.946325 9.78981e-21)
(24.2531 -2.29523 -3.20836e-19)
(21.8278 0.137644 -1.85272e-20)
(22.1562 -0.704481 0)
(18.8802 0.690657 -2.02136e-20)
(22.0067 0.0794312 0)
(22.6973 -3.3765 -1.05341e-19)
(20.3446 -0.224812 2.77528e-20)
(22.6756 0.808433 -2.93641e-21)
(24.0965 -0.913357 0)
(22.3363 -0.145607 -1.2243e-20)
(21.3133 0.53029 0)
(22.5573 -1.50686 7.68841e-20)
(21.9698 -0.261156 3.64395e-20)
(22.8932 -0.701694 2.9937e-20)
(19.4792 0.0794208 0)
(22.1695 -0.368603 1.79023e-20)
(22.0767 -0.167809 0)
(21.897 0.0451375 0)
(6.11866 -1.66085 -9.06596e-20)
(12.6646 -1.1186 1.03829e-19)
(21.8829 -0.27103 7.28766e-20)
(15.8836 -1.14646 0)
(21.9773 -2.53892 0)
(21.6932 0.0614523 -1.14882e-20)
(9.08175 -1.2209 0)
(14.079 -1.56849 5.95088e-20)
(22.1621 -0.198285 -1.7613e-20)
(22.2702 -0.264923 2.15453e-20)
(21.2051 -1.29292 -2.34832e-21)
(21.9101 -0.182426 1.44156e-20)
(21.8063 -2.0316 0)
(21.7377 0.746588 -1.0153e-20)
(22.0872 0.740445 -1.01854e-20)
(21.7044 0.632456 5.22954e-20)
(22.2269 0.360572 0)
(15.6702 -3.73912 0)
(22.3314 -0.151945 -5.74366e-21)
(18.3146 -0.324437 0)
(25.9858 5.03932 0)
(6.2974 -1.71064 -4.049e-21)
(23.4415 -0.392484 0)
(21.342 -0.536532 -2.80301e-20)
(22.1492 -0.0748651 0)
(18.6287 0.0300762 0)
(21.9877 -0.338661 4.37784e-20)
(21.6705 -0.582025 -5.52603e-21)
(21.6808 -0.26671 0)
(12.0876 8.58197 -5.21321e-19)
(23.0807 -0.143888 -4.5112e-20)
(21.193 0.224706 -1.44756e-20)
(23.0671 0.746375 1.00909e-21)
(26.4245 -2.78861 -7.35056e-19)
(21.9985 -0.291058 3.84219e-20)
(21.9034 0.0551212 0)
(22.4605 -0.101565 5.17366e-21)
(22.0028 -0.0241082 1.80308e-20)
(24.0815 -4.03671 -3.44511e-19)
(27.5218 3.97884 -1.34869e-18)
(21.4278 0.356875 -7.43311e-21)
(21.1446 -2.42869 -1.20048e-20)
(22.9352 -0.0839997 -3.16817e-21)
(25.3921 1.59092 -3.45741e-19)
(22.2983 -2.16816 1.70386e-20)
(22.211 1.3282 0)
(23.3272 -0.572537 0)
(21.9314 0.227007 -4.54314e-20)
(20.4845 0.444692 4.56568e-20)
(22.6648 -4.00393 0)
(20.6058 0.820166 9.84391e-20)
(22.9632 0.1254 -1.30247e-20)
(21.9766 0.0669369 -3.42663e-22)
(22.3173 1.00263 0)
(26.921 4.37497 5.78889e-19)
(22.3504 -0.133063 0)
(22.1971 0.470858 0)
(21.9316 -0.193317 -4.68265e-20)
(21.9715 -0.100413 -2.42244e-20)
(22.6779 0.248497 1.4222e-20)
(21.0737 -1.94784 2.70598e-20)
(23.5139 1.39203 5.96415e-20)
(15.8375 -2.22638 0)
(21.8815 0.128702 -1.41183e-20)
(15.5275 -2.33594 6.46836e-22)
(22.5777 -2.17883 -4.2455e-20)
(23.6937 -4.37918 0)
(22.0118 0.0327622 3.92025e-21)
(21.5834 1.19195 -5.92551e-20)
(21.7923 -1.05719 0)
(21.8464 -2.54691 -5.21239e-21)
(21.9444 0.0762096 0)
(21.1698 -0.230068 1.11901e-22)
(18.9532 -0.225201 -3.40215e-20)
(24.2135 -0.602643 -4.91581e-19)
(21.8644 0.0885651 0)
(22.2191 0.792452 5.85274e-23)
(15.0076 -2.38941 -1.25441e-20)
(20.3039 -0.345975 1.75485e-18)
(16.6115 -2.4855 1.38321e-20)
(22.5726 0.926705 0)
(21.8933 0.0632466 8.41096e-21)
(18.8849 -0.206681 -5.07362e-21)
(22.6574 -0.223167 3.61771e-20)
(15.7938 -2.26894 8.70741e-21)
(14.8793 -0.847314 -1.73372e-20)
(21.6388 -1.68674 1.79686e-20)
(22.6012 8.65084 0)
(23.0166 0.758317 9.48883e-20)
(22.2832 -0.430437 7.7242e-20)
(21.4782 0.302997 0)
(21.6718 0.685889 9.74775e-21)
(21.3417 0.271772 -2.11002e-20)
(26.3135 5.25081 0)
(23.3137 0.173419 1.05354e-20)
(20.8401 -0.300702 -2.44775e-20)
(19.8937 -0.187781 4.69151e-21)
(21.6603 -2.05035 -3.79573e-21)
(23.9462 -1.50135 6.59071e-20)
(22.0832 0.684468 1.21598e-19)
(24.386 0.531186 2.52551e-19)
(20.3461 -0.611564 -8.01446e-21)
(21.9564 0.0913636 6.11895e-21)
(23.1719 -4.03459 -2.42008e-19)
(24.4219 3.85765 -4.00009e-20)
(19.9926 -0.305215 0)
(22.5036 0.194899 -3.03924e-20)
(21.0669 -0.156056 0)
(22.7811 -0.460189 5.20696e-21)
(22.7021 0.260043 9.92071e-21)
(23.0315 -0.999292 -4.69383e-21)
(22.5358 0.184605 2.93083e-20)
(17.884 0.81896 -3.26569e-20)
(13.7771 -2.68534 3.83642e-20)
(22.0784 -0.21796 0)
(21.9063 0.349069 2.53101e-20)
(21.9087 -0.152186 9.07093e-21)
(14.8853 -2.55279 0)
(21.9727 -0.659712 6.14389e-21)
(19.0191 0.396917 0)
(23.114 -0.00681216 3.8952e-20)
(24.84 -0.110335 6.26807e-19)
(10.6346 0.339961 0)
(24.6297 -0.389873 9.52555e-19)
(24.5558 -1.3034 7.96024e-20)
(21.8983 -0.186019 2.56174e-21)
(22.3033 -0.140278 -1.66967e-21)
(22.279 -0.530676 1.26544e-21)
(23.2446 -1.46362 -1.94034e-19)
(20.7138 -1.69061 -9.01423e-21)
(22.038 0.164747 -8.92567e-21)
(20.7424 -3.02793 -2.12374e-20)
(20.782 0.348644 0)
(22.1774 -0.256362 1.57688e-20)
(17.927 -0.240611 -3.79274e-20)
(24.3171 -0.578228 5.07367e-19)
(19.9571 0.456917 2.71388e-20)
(21.8458 -0.0497008 1.33504e-20)
(22.2304 -0.146151 -1.47542e-20)
(21.6924 4.38606 -1.59131e-18)
(19.081 -0.26426 -2.17349e-20)
(23.0188 -0.684683 -3.13195e-20)
(21.2146 -0.199685 2.89689e-20)
(21.4769 -1.27366 1.57385e-20)
(20.5052 1.20806 -6.92629e-20)
(21.8555 -0.058948 -1.36063e-20)
(23.2521 -0.206259 3.2906e-20)
(22.1594 -0.270664 -5.89863e-21)
(22.5167 -0.175711 4.33904e-20)
(22.606 -0.753028 -4.93459e-20)
(22.4288 -0.671503 1.5107e-21)
(22.3876 -2.15689 -5.37467e-20)
(21.9383 -0.227317 5.08363e-20)
(21.867 0.230562 5.86139e-20)
(23.4287 0.0188717 -7.12861e-20)
(20.0551 1.84427 3.48814e-20)
(22.4935 1.84964 -1.4281e-20)
(23.1006 -0.953345 -2.75774e-19)
(22.7684 -3.94438 0)
(20.3966 -0.161681 6.20493e-20)
(20.8324 -1.88565 0)
(21.9374 0.161295 -1.16913e-20)
(5.74058 -1.44774 5.68465e-20)
(13.8014 -1.31933 0)
(22.0257 0.032035 0)
(23.6913 -1.32004 2.2662e-19)
(22.4845 0.820296 0)
(21.7756 0.131803 3.65299e-20)