# Forces     
# CofR       : (0.000000e+00 0.000000e+00 0.000000e+00)
# Time       forces(pressure viscous porous) moment(pressure viscous porous)
1            	((8.716619e-05 3.838060e-04 -4.964518e-22) (-6.467713e-06 1.500438e-07 5.315814e-10) (0.000000e+00 0.000000e+00 0.000000e+00)) ((-5.757089e-05 1.307522e-05 5.949209e-05) (-2.249636e-08 -9.701893e-07 1.173977e-08) (0.000000e+00 0.000000e+00 0.000000e+00))
2            	((9.934773e-04 2.714084e-03 -7.287796e-21) (2.329745e-05 1.419836e-06 -6.324398e-12) (0.000000e+00 0.000000e+00 0.000000e+00)) ((-4.071112e-04 1.490224e-04 4.273734e-04) (-2.130812e-07 3.494744e-06 1.987087e-07) (0.000000e+00 0.000000e+00 0.000000e+00))
3            	((1.582769e-03 3.645368e-03 -1.161921e-20) (5.141042e-05 -7.439523e-06 -3.932124e-09) (0.000000e+00 0.000000e+00 0.000000e+00)) ((-5.468067e-04 2.374150e-04 5.763358e-04) (1.115701e-06 7.712126e-06 -1.216132e-06) (0.000000e+00 0.000000e+00 0.000000e+00))
4            	((1.632069e-03 3.301332e-03 -1.197452e-20) (9.390384e-05 -8.107699e-06 -6.725879e-09) (0.000000e+00 0.000000e+00 0.000000e+00)) ((-4.952011e-04 2.448092e-04 5.229926e-04) (1.216060e-06 1.408633e-05 -1.316287e-06) (0.000000e+00 0.000000e+00 0.000000e+00))
5            	((1.291143e-03 2.533912e-03 -9.562928e-21) (1.235630e-04 9.465305e-07 -2.717943e-09) (0.000000e+00 0.000000e+00 0.000000e+00)) ((-3.800865e-04 1.936699e-04 4.015865e-04) (-1.418881e-07 1.853453e-05 1.419211e-07) (0.000000e+00 0.000000e+00 0.000000e+00))
6            	((9.188966e-04 1.907823e-03 -6.811874e-21) (1.174818e-04 8.170178e-06 5.337238e-09) (0.000000e+00 0.000000e+00 0.000000e+00)) ((-2.861706e-04 1.378344e-04 3.017155e-04) (-1.225395e-06 1.762141e-05 1.303095e-06) (0.000000e+00 0.000000e+00 0.000000e+00))
7            	((7.766850e-04 1.778601e-03 -5.587134e-21) (9.571225e-05 9.434320e-06 9.050017e-09) (0.000000e+00 0.000000e+00 0.000000e+00)) ((-2.667885e-04 1.165041e-04 2.804703e-04) (-1.415121e-06 1.435576e-05 1.503045e-06) (0.000000e+00 0.000000e+00 0.000000e+00))
8            	((8.422627e-04 1.973450e-03 -5.868778e-21) (7.951082e-05 5.858593e-06 5.400005e-09) (0.000000e+00 0.000000e+00 0.000000e+00)) ((-2.960184e-04 1.263411e-04 3.112720e-04) (-8.788206e-07 1.192617e-05 9.268769e-07) (0.000000e+00 0.000000e+00 0.000000e+00))
9            	((9.683446e-04 2.185870e-03 -6.621747e-21) (7.677987e-05 6.780637e-07 -1.295193e-09) (0.000000e+00 0.000000e+00 0.000000e+00)) ((-3.278827e-04 1.452516e-04 3.452377e-04) (-1.017024e-07 1.151728e-05 9.857118e-08) (0.000000e+00 0.000000e+00 0.000000e+00))
10           	((1.055102e-03 2.286022e-03 -7.103333e-21) (8.381138e-05 -3.122946e-06 -5.997248e-09) (0.000000e+00 0.000000e+00 0.000000e+00)) ((-3.429047e-04 1.582641e-04 3.611280e-04) (4.684923e-07 1.257235e-05 -5.049621e-07) (0.000000e+00 0.000000e+00 0.000000e+00))
11           	((1.090040e-03 2.411867e-03 -7.252210e-21) (9.151879e-05 -4.544506e-06 -5.566518e-09) (0.000000e+00 0.000000e+00 0.000000e+00)) ((-3.617805e-04 1.635055e-04 3.803727e-04) (6.817178e-07 1.372830e-05 -7.303999e-07) (0.000000e+00 0.000000e+00 0.000000e+00))
12           	((1.122873e-03 2.642849e-03 -7.377553e-21) (9.383991e-05 -4.639759e-06 -1.297421e-09) (0.000000e+00 0.000000e+00 0.000000e+00)) ((-3.964263e-04 1.684309e-04 4.159631e-04) (6.959224e-07 1.407602e-05 -7.501292e-07) (0.000000e+00 0.000000e+00 0.000000e+00))
13           	((1.150772e-03 2.879734e-03 -7.465525e-21) (9.038239e-05 -5.256596e-06 3.167498e-09) (0.000000e+00 0.000000e+00 0.000000e+00)) ((-4.319570e-04 1.726157e-04 4.526130e-04) (7.883319e-07 1.355695e-05 -8.586185e-07) (0.000000e+00 0.000000e+00 0.000000e+00))
14           	((1.162002e-03 3.013515e-03 -7.455814e-21) (8.460797e-05 -7.128096e-06 4.049028e-09) (0.000000e+00 0.000000e+00 0.000000e+00)) ((-4.520231e-04 1.742995e-04 4.734446e-04) (1.068976e-06 1.269069e-05 -1.167733e-06) (0.000000e+00 0.000000e+00 0.000000e+00))
15           	((1.153929e-03 2.988026e-03 -7.317981e-21) (8.038526e-05 -9.659980e-06 4.455114e-10) (0.000000e+00 0.000000e+00 0.000000e+00)) ((-4.482010e-04 1.730875e-04 4.695168e-04) (1.448725e-06 1.205757e-05 -1.575723e-06) (0.000000e+00 0.000000e+00 0.000000e+00))
16           	((1.144649e-03 2.876472e-03 -7.109881e-21) (8.017349e-05 -1.152814e-05 -4.450747e-09) (0.000000e+00 0.000000e+00 0.000000e+00)) ((-4.314729e-04 1.716969e-04 4.518309e-04) (1.729025e-06 1.202624e-05 -1.870579e-06) (0.000000e+00 0.000000e+00 0.000000e+00))
17           	((1.146071e-03 2.779890e-03 -6.903080e-21) (8.356647e-05 -1.220037e-05 -6.925313e-09) (0.000000e+00 0.000000e+00 0.000000e+00)) ((-4.169883e-04 1.719120e-04 4.362882e-04) (1.829985e-06 1.253555e-05 -1.972265e-06) (0.000000e+00 0.000000e+00 0.000000e+00))
18           	((1.161250e-03 2.768865e-03 -6.776428e-21) (8.870411e-05 -1.238828e-05 -5.394557e-09) (0.000000e+00 0.000000e+00 0.000000e+00)) ((-4.153325e-04 1.741892e-04 4.340605e-04) (1.858232e-06 1.330623e-05 -1.999667e-06) (0.000000e+00 0.000000e+00 0.000000e+00))
19           	((1.190629e-03 2.852195e-03 -6.809893e-21) (9.375708e-05 -1.277752e-05 -1.039340e-09) (0.000000e+00 0.000000e+00 0.000000e+00)) ((-4.278277e-04 1.785950e-04 4.466988e-04) (1.916626e-06 1.406380e-05 -2.065449e-06) (0.000000e+00 0.000000e+00 0.000000e+00))
20           	((1.208118e-03 2.921914e-03 -6.874054e-21) (9.746697e-05 -1.340962e-05 2.581704e-09) (0.000000e+00 0.000000e+00 0.000000e+00)) ((-4.382819e-04 1.812169e-04 4.574895e-04) (2.011438e-06 1.461980e-05 -2.174867e-06) (0.000000e+00 0.000000e+00 0.000000e+00))
21           	((1.224339e-03 2.953954e-03 -6.918288e-21) (9.994960e-05 -1.392734e-05 3.673807e-09) (0.000000e+00 0.000000e+00 0.000000e+00)) ((-4.430905e-04 1.836500e-04 4.623835e-04) (2.089163e-06 1.499191e-05 -2.269512e-06) (0.000000e+00 0.000000e+00 0.000000e+00))
22           	((1.240442e-03 2.918171e-03 -6.904361e-21) (1.021489e-04 -1.414042e-05 2.384169e-09) (0.000000e+00 0.000000e+00 0.000000e+00)) ((-4.377267e-04 1.860663e-04 4.568263e-04) (2.121239e-06 1.532187e-05 -2.315483e-06) (0.000000e+00 0.000000e+00 0.000000e+00))
23           	((1.262272e-03 2.903892e-03 -6.859809e-21) (1.047120e-04 -1.409904e-05 1.080655e-10) (0.000000e+00 0.000000e+00 0.000000e+00)) ((-4.355854e-04 1.893414e-04 4.542851e-04) (2.115058e-06 1.570666e-05 -2.321512e-06) (0.000000e+00 0.000000e+00 0.000000e+00))
24           	((1.279639e-03 2.932275e-03 -6.799610e-21) (1.071703e-04 -1.396616e-05 -1.356743e-09) (0.000000e+00 0.000000e+00 0.000000e+00)) ((-4.398384e-04 1.919452e-04 4.583033e-04) (2.094950e-06 1.607565e-05 -2.318243e-06) (0.000000e+00 0.000000e+00 0.000000e+00))
25           	((1.291763e-03 2.990468e-03 -6.714571e-21) (1.087481e-04 -1.388524e-05 -2.221508e-09) (0.000000e+00 0.000000e+00 0.000000e+00)) ((-4.485635e-04 1.937623e-04 4.668623e-04) (2.082533e-06 1.631241e-05 -2.331045e-06) (0.000000e+00 0.000000e+00 0.000000e+00))
26           	((1.292811e-03 3.002212e-03 -6.588847e-21) (1.092524e-04 -1.394937e-05 -3.994540e-09) (0.000000e+00 0.000000e+00 0.000000e+00)) ((-4.503240e-04 1.939186e-04 4.685505e-04) (2.091997e-06 1.638810e-05 -2.373697e-06) (0.000000e+00 0.000000e+00 0.000000e+00))
27           	((1.294717e-03 2.979005e-03 -6.431889e-21) (1.093286e-04 -1.416138e-05 -6.506975e-09) (0.000000e+00 0.000000e+00 0.000000e+00)) ((-4.468467e-04 1.942054e-04 4.649710e-04) (2.123853e-06 1.639964e-05 -2.440979e-06) (0.000000e+00 0.000000e+00 0.000000e+00))
28           	((1.311029e-03 2.945909e-03 -6.290922e-21) (1.098924e-04 -1.447470e-05 -7.581824e-09) (0.000000e+00 0.000000e+00 0.000000e+00)) ((-4.418895e-04 1.966556e-04 4.599010e-04) (2.171082e-06 1.648430e-05 -2.521894e-06) (0.000000e+00 0.000000e+00 0.000000e+00))
29           	((1.374008e-03 3.001650e-03 -6.228065e-21) (1.117115e-04 -1.490798e-05 -5.534432e-09) (0.000000e+00 0.000000e+00 0.000000e+00)) ((-4.502533e-04 2.061052e-04 4.682188e-04) (2.236314e-06 1.675719e-05 -2.623306e-06) (0.000000e+00 0.000000e+00 0.000000e+00))
30           	((1.413127e-03 3.013444e-03 -6.135528e-21) (1.143531e-04 -1.546131e-05 -1.415426e-09) (0.000000e+00 0.000000e+00 0.000000e+00)) ((-4.520206e-04 2.119726e-04 4.702132e-04) (2.319409e-06 1.715332e-05 -2.744562e-06) (0.000000e+00 0.000000e+00 0.000000e+00))
31           	((1.457059e-03 3.024234e-03 -6.063222e-21) (1.172416e-04 -1.600135e-05 1.331013e-09) (0.000000e+00 0.000000e+00 0.000000e+00)) ((-4.536347e-04 2.185594e-04 4.720546e-04) (2.400361e-06 1.758644e-05 -2.864966e-06) (0.000000e+00 0.000000e+00 0.000000e+00))
32           	((1.509961e-03 3.053972e-03 -6.014270e-21) (1.204321e-04 -1.646187e-05 6.069514e-10) (0.000000e+00 0.000000e+00 0.000000e+00)) ((-4.580954e-04 2.264928e-04 4.761937e-04) (2.469340e-06 1.806497e-05 -2.994437e-06) (0.000000e+00 0.000000e+00 0.000000e+00))
33           	((1.579143e-03 3.116372e-03 -6.003923e-21) (1.244722e-04 -1.685547e-05 -1.829480e-09) (0.000000e+00 0.000000e+00 0.000000e+00)) ((-4.674582e-04 2.368698e-04 4.849922e-04) (2.528411e-06 1.867099e-05 -3.142670e-06) (0.000000e+00 0.000000e+00 0.000000e+00))
34           	((1.634980e-03 3.215073e-03 -6.024676e-21) (1.292646e-04 -1.727779e-05 -2.928393e-09) (0.000000e+00 0.000000e+00 0.000000e+00)) ((-4.822654e-04 2.452462e-04 4.994161e-04) (2.591955e-06 1.938973e-05 -3.306256e-06) (0.000000e+00 0.000000e+00 0.000000e+00))
35           	((1.672048e-03 3.327246e-03 -6.043776e-21) (1.338726e-04 -1.779665e-05 -1.577236e-09) (0.000000e+00 0.000000e+00 0.000000e+00)) ((-4.990870e-04 2.508072e-04 5.161674e-04) (2.669962e-06 2.008074e-05 -3.477101e-06) (0.000000e+00 0.000000e+00 0.000000e+00))
36           	((1.685271e-03 3.403945e-03 -6.050146e-21) (1.374754e-04 -1.847150e-05 1.139951e-09) (0.000000e+00 0.000000e+00 0.000000e+00)) ((-5.105833e-04 2.527906e-04 5.281147e-04) (2.771154e-06 2.062098e-05 -3.653018e-06) (0.000000e+00 0.000000e+00 0.000000e+00))
37           	((1.674724e-03 3.428908e-03 -6.049746e-21) (1.398433e-04 -1.927535e-05 4.171333e-09) (0.000000e+00 0.000000e+00 0.000000e+00)) ((-5.143274e-04 2.512085e-04 5.327796e-04) (2.891497e-06 2.097604e-05 -3.827395e-06) (0.000000e+00 0.000000e+00 0.000000e+00))
38           	((1.690058e-03 3.436241e-03 -6.062039e-21) (1.416467e-04 -2.008995e-05 4.950079e-09) (0.000000e+00 0.000000e+00 0.000000e+00)) ((-5.154302e-04 2.535087e-04 5.345761e-04) (3.013400e-06 2.124661e-05 -4.001210e-06) (0.000000e+00 0.000000e+00 0.000000e+00))
39           	((1.729221e-03 3.478588e-03 -6.086911e-21) (1.438764e-04 -2.087762e-05 6.668550e-10) (0.000000e+00 0.000000e+00 0.000000e+00)) ((-5.217888e-04 2.593825e-04 5.417774e-04) (3.131413e-06 2.158150e-05 -4.180970e-06) (0.000000e+00 0.000000e+00 0.000000e+00))
40           	((1.764593e-03 3.493942e-03 -6.093861e-21) (1.468703e-04 -2.168854e-05 -6.165010e-09) (0.000000e+00 0.000000e+00 0.000000e+00)) ((-5.240936e-04 2.646869e-04 5.452671e-04) (3.253157e-06 2.203106e-05 -4.352028e-06) (0.000000e+00 0.000000e+00 0.000000e+00))
41           	((1.765834e-03 3.490103e-03 -6.087488e-21) (1.502973e-04 -2.248057e-05 -9.842572e-09) (0.000000e+00 0.000000e+00 0.000000e+00)) ((-5.235123e-04 2.648717e-04 5.455788e-04) (3.372120e-06 2.254517e-05 -4.498033e-06) (0.000000e+00 0.000000e+00 0.000000e+00))
42           	((1.729800e-03 3.466666e-03 -6.060228e-21) (1.535328e-04 -2.316009e-05 -6.848741e-09) (0.000000e+00 0.000000e+00 0.000000e+00)) ((-5.199860e-04 2.594665e-04 5.430334e-04) (3.474058e-06 2.303003e-05 -4.612906e-06) (0.000000e+00 0.000000e+00 0.000000e+00))
43           	((1.700405e-03 3.475878e-03 -6.058796e-21) (1.565468e-04 -2.371097e-05 -1.340917e-09) (0.000000e+00 0.000000e+00 0.000000e+00)) ((-5.213753e-04 2.550648e-04 5.447505e-04) (3.556782e-06 2.348179e-05 -4.710761e-06) (0.000000e+00 0.000000e+00 0.000000e+00))
44           	((1.697424e-03 3.528879e-03 -6.079618e-21) (1.597520e-04 -2.419636e-05 8.700248e-10) (0.000000e+00 0.000000e+00 0.000000e+00)) ((-5.293318e-04 2.546190e-04 5.526379e-04) (3.629908e-06 2.396280e-05 -4.816284e-06) (0.000000e+00 0.000000e+00 0.000000e+00))
45           	((1.682870e-03 3.570541e-03 -6.095417e-21) (1.631307e-04 -2.469399e-05 -7.729850e-10) (0.000000e+00 0.000000e+00 0.000000e+00)) ((-5.355794e-04 2.524327e-04 5.587001e-04) (3.704800e-06 2.447001e-05 -4.923885e-06) (0.000000e+00 0.000000e+00 0.000000e+00))
46           	((1.634655e-03 3.556004e-03 -6.102051e-21) (1.665046e-04 -2.521111e-05 -4.194707e-09) (0.000000e+00 0.000000e+00 0.000000e+00)) ((-5.333928e-04 2.451970e-04 5.560495e-04) (3.782450e-06 2.497642e-05 -5.004970e-06) (0.000000e+00 0.000000e+00 0.000000e+00))
47           	((1.541650e-03 3.493526e-03 -6.099418e-21) (1.696436e-04 -2.566977e-05 -6.675083e-09) (0.000000e+00 0.000000e+00 0.000000e+00)) ((-5.240185e-04 2.312461e-04 5.457520e-04) (3.851298e-06 2.544745e-05 -5.033124e-06) (0.000000e+00 0.000000e+00 0.000000e+00))
48           	((1.456424e-03 3.395978e-03 -6.101517e-21) (1.725028e-04 -2.595470e-05 -6.834272e-09) (0.000000e+00 0.000000e+00 0.000000e+00)) ((-5.093871e-04 2.184636e-04 5.288737e-04) (3.894186e-06 2.587639e-05 -5.001108e-06) (0.000000e+00 0.000000e+00 0.000000e+00))
49           	((1.395110e-03 3.316820e-03 -6.106271e-21) (1.752442e-04 -2.599018e-05 -5.488512e-09) (0.000000e+00 0.000000e+00 0.000000e+00)) ((-4.975161e-04 2.092677e-04 5.135936e-04) (3.899723e-06 2.628760e-05 -4.921234e-06) (0.000000e+00 0.000000e+00 0.000000e+00))
50           	((1.341075e-03 3.192560e-03 -6.104276e-21) (1.778910e-04 -2.577714e-05 -3.629520e-09) (0.000000e+00 0.000000e+00 0.000000e+00)) ((-4.788677e-04 2.011598e-04 4.917896e-04) (3.867861e-06 2.668448e-05 -4.790484e-06) (0.000000e+00 0.000000e+00 0.000000e+00))
51           	((1.257817e-03 3.072036e-03 -6.089552e-21) (1.801836e-04 -2.537515e-05 -2.406876e-09) (0.000000e+00 0.000000e+00 0.000000e+00)) ((-4.607868e-04 1.886712e-04 4.712207e-04) (3.807552e-06 2.702824e-05 -4.603446e-06) (0.000000e+00 0.000000e+00 0.000000e+00))
52           	((1.211215e-03 2.962944e-03 -6.075356e-21) (1.819561e-04 -2.484389e-05 -2.862655e-09) (0.000000e+00 0.000000e+00 0.000000e+00)) ((-4.444208e-04 1.816821e-04 4.524552e-04) (3.727905e-06 2.729426e-05 -4.370429e-06) (0.000000e+00 0.000000e+00 0.000000e+00))
53           	((1.231244e-03 2.879151e-03 -6.066742e-21) (1.832478e-04 -2.418282e-05 -3.759169e-09) (0.000000e+00 0.000000e+00 0.000000e+00)) ((-4.318472e-04 1.846877e-04 4.369261e-04) (3.628776e-06 2.748829e-05 -4.119152e-06) (0.000000e+00 0.000000e+00 0.000000e+00))
54           	((1.279630e-03 2.806477e-03 -6.052483e-21) (1.838498e-04 -2.333095e-05 -3.264655e-09) (0.000000e+00 0.000000e+00 0.000000e+00)) ((-4.209413e-04 1.919438e-04 4.232442e-04) (3.501056e-06 2.757861e-05 -3.858497e-06) (0.000000e+00 0.000000e+00 0.000000e+00))
55           	((1.303033e-03 2.722551e-03 -6.024148e-21) (1.832775e-04 -2.230328e-05 -6.295077e-10) (0.000000e+00 0.000000e+00 0.000000e+00)) ((-4.083612e-04 1.954507e-04 4.089257e-04) (3.347094e-06 2.749217e-05 -3.576059e-06) (0.000000e+00 0.000000e+00 0.000000e+00))
56           	((1.334854e-03 2.642225e-03 -5.992195e-21) (1.812283e-04 -2.126157e-05 3.129087e-09) (0.000000e+00 0.000000e+00 0.000000e+00)) ((-3.963216e-04 2.002193e-04 3.976984e-04) (3.191092e-06 2.718367e-05 -3.272511e-06) (0.000000e+00 0.000000e+00 0.000000e+00))
57           	((1.326863e-03 2.597657e-03 -5.957314e-21) (1.776154e-04 -2.040907e-05 6.500034e-09) (0.000000e+00 0.000000e+00 0.000000e+00)) ((-3.896357e-04 1.990205e-04 3.927387e-04) (3.063255e-06 2.664058e-05 -2.970889e-06) (0.000000e+00 0.000000e+00 0.000000e+00))
58           	((1.399358e-03 2.536009e-03 -5.945995e-21) (1.732160e-04 -1.968792e-05 7.768195e-09) (0.000000e+00 0.000000e+00 0.000000e+00)) ((-3.803841e-04 2.098987e-04 3.844599e-04) (2.954763e-06 2.598036e-05 -2.700602e-06) (0.000000e+00 0.000000e+00 0.000000e+00))
59           	((1.531290e-03 2.430591e-03 -5.938870e-21) (1.687207e-04 -1.892486e-05 6.348436e-09) (0.000000e+00 0.000000e+00 0.000000e+00)) ((-3.645751e-04 2.296895e-04 3.689442e-04) (2.839819e-06 2.530641e-05 -2.450741e-06) (0.000000e+00 0.000000e+00 0.000000e+00))
60           	((1.711413e-03 2.286673e-03 -5.917067e-21) (1.638582e-04 -1.812817e-05 3.518745e-09) (0.000000e+00 0.000000e+00 0.000000e+00)) ((-3.429914e-04 2.567055e-04 3.488540e-04) (2.720078e-06 2.457733e-05 -2.232896e-06) (0.000000e+00 0.000000e+00 0.000000e+00))
61           	((1.848620e-03 2.098680e-03 -5.883689e-21) (1.580263e-04 -1.736439e-05 3.793984e-10) (0.000000e+00 0.000000e+00 0.000000e+00)) ((-3.148048e-04 2.772869e-04 3.214811e-04) (2.605496e-06 2.370263e-05 -2.054052e-06) (0.000000e+00 0.000000e+00 0.000000e+00))
62           	((1.934172e-03 1.959599e-03 -5.848224e-21) (1.512226e-04 -1.651274e-05 -1.997518e-09) (0.000000e+00 0.000000e+00 0.000000e+00)) ((-2.939415e-04 2.901189e-04 3.024641e-04) (2.477680e-06 2.268214e-05 -1.894411e-06) (0.000000e+00 0.000000e+00 0.000000e+00))
63           	((2.014361e-03 1.888180e-03 -5.814142e-21) (1.438446e-04 -1.556484e-05 -4.315762e-09) (0.000000e+00 0.000000e+00 0.000000e+00)) ((-2.832290e-04 3.021484e-04 2.946400e-04) (2.335144e-06 2.157563e-05 -1.778565e-06) (0.000000e+00 0.000000e+00 0.000000e+00))
64           	((2.055731e-03 1.829682e-03 -5.782865e-21) (1.364020e-04 -1.450397e-05 -6.010877e-09) (0.000000e+00 0.000000e+00 0.000000e+00)) ((-2.744570e-04 3.083544e-04 2.876924e-04) (2.175382e-06 2.045940e-05 -1.711175e-06) (0.000000e+00 0.000000e+00 0.000000e+00))
65           	((2.114169e-03 1.770878e-03 -5.750902e-21) (1.292074e-04 -1.340802e-05 -5.764976e-09) (0.000000e+00 0.000000e+00 0.000000e+00)) ((-2.656436e-04 3.171205e-04 2.803068e-04) (2.010480e-06 1.938012e-05 -1.698841e-06) (0.000000e+00 0.000000e+00 0.000000e+00))
66           	((2.217038e-03 1.746917e-03 -5.712383e-21) (1.219562e-04 -1.245745e-05 -4.667532e-09) (0.000000e+00 0.000000e+00 0.000000e+00)) ((-2.620587e-04 3.325485e-04 2.792543e-04) (1.867682e-06 1.829208e-05 -1.721549e-06) (0.000000e+00 0.000000e+00 0.000000e+00))
67           	((2.352695e-03 1.699305e-03 -5.671584e-21) (1.143439e-04 -1.164732e-05 -2.503775e-09) (0.000000e+00 0.000000e+00 0.000000e+00)) ((-2.549372e-04 3.528962e-04 2.744836e-04) (1.746161e-06 1.714941e-05 -1.735124e-06) (0.000000e+00 0.000000e+00 0.000000e+00))
68           	((2.468528e-03 1.666987e-03 -5.632367e-21) (1.065575e-04 -1.083747e-05 -6.173835e-10) (0.000000e+00 0.000000e+00 0.000000e+00)) ((-2.500961e-04 3.702705e-04 2.712857e-04) (1.624560e-06 1.598052e-05 -1.728790e-06) (0.000000e+00 0.000000e+00 0.000000e+00))
69           	((2.572084e-03 1.642086e-03 -5.601574e-21) (9.909165e-05 -9.933465e-06 -3.597713e-10) (0.000000e+00 0.000000e+00 0.000000e+00)) ((-2.463614e-04 3.858027e-04 2.677212e-04) (1.488209e-06 1.485983e-05 -1.705130e-06) (0.000000e+00 0.000000e+00 0.000000e+00))
70           	((2.616458e-03 1.641791e-03 -5.570300e-21) (9.229405e-05 -8.939416e-06 -3.007941e-10) (0.000000e+00 0.000000e+00 0.000000e+00)) ((-2.463025e-04 3.924558e-04 2.674021e-04) (1.338537e-06 1.383947e-05 -1.667931e-06) (0.000000e+00 0.000000e+00 0.000000e+00))
71           	((2.685387e-03 1.647588e-03 -5.544797e-21) (8.619375e-05 -7.952246e-06 1.348313e-09) (0.000000e+00 0.000000e+00 0.000000e+00)) ((-2.471760e-04 4.027943e-04 2.676904e-04) (1.190204e-06 1.292352e-05 -1.618120e-06) (0.000000e+00 0.000000e+00 0.000000e+00))
72           	((2.823506e-03 1.713949e-03 -5.520187e-21) (8.057492e-05 -7.130045e-06 3.505403e-09) (0.000000e+00 0.000000e+00 0.000000e+00)) ((-2.571301e-04 4.235107e-04 2.792067e-04) (1.066363e-06 1.207943e-05 -1.567060e-06) (0.000000e+00 0.000000e+00 0.000000e+00))
73           	((2.990725e-03 1.777880e-03 -5.496645e-21) (7.510784e-05 -6.489395e-06 5.700481e-09) (0.000000e+00 0.000000e+00 0.000000e+00)) ((-2.667055e-04 4.485889e-04 2.896672e-04) (9.699025e-07 1.125799e-05 -1.483115e-06) (0.000000e+00 0.000000e+00 0.000000e+00))
74           	((3.157227e-03 1.813114e-03 -5.476084e-21) (6.972379e-05 -5.884868e-06 8.477240e-09) (0.000000e+00 0.000000e+00 0.000000e+00)) ((-2.720142e-04 4.735620e-04 2.937535e-04) (8.789042e-07 1.044882e-05 -1.350584e-06) (0.000000e+00 0.000000e+00 0.000000e+00))
75           	((3.341376e-03 1.766886e-03 -5.462452e-21) (6.466360e-05 -5.122655e-06 1.141700e-08) (0.000000e+00 0.000000e+00 0.000000e+00)) ((-2.651045e-04 5.011832e-04 2.820027e-04) (7.643621e-07 9.688124e-06 -1.172233e-06) (0.000000e+00 0.000000e+00 0.000000e+00))
76           	((3.470057e-03 1.730379e-03 -5.447715e-21) (6.018001e-05 -4.175810e-06 1.436412e-08) (0.000000e+00 0.000000e+00 0.000000e+00)) ((-2.596389e-04 5.204820e-04 2.721323e-04) (6.222160e-07 9.013765e-06 -9.665900e-07) (0.000000e+00 0.000000e+00 0.000000e+00))
77           	((3.568751e-03 1.710609e-03 -5.431791e-21) (5.626232e-05 -3.165418e-06 1.596284e-08) (0.000000e+00 0.000000e+00 0.000000e+00)) ((-2.566829e-04 5.352847e-04 2.652000e-04) (4.705824e-07 8.424309e-06 -7.324630e-07) (0.000000e+00 0.000000e+00 0.000000e+00))
78           	((3.692504e-03 1.704060e-03 -5.417642e-21) (5.273423e-05 -2.175311e-06 1.560523e-08) (0.000000e+00 0.000000e+00 0.000000e+00)) ((-2.556961e-04 5.538451e-04 2.602636e-04) (3.218435e-07 7.893498e-06 -4.734873e-07) (0.000000e+00 0.000000e+00 0.000000e+00))
79           	((3.822080e-03 1.631376e-03 -5.407747e-21) (4.957324e-05 -1.131134e-06 1.835326e-08) (0.000000e+00 0.000000e+00 0.000000e+00)) ((-2.447906e-04 5.732722e-04 2.413883e-04) (1.648480e-07 7.417382e-06 -2.023701e-07) (0.000000e+00 0.000000e+00 0.000000e+00))
80           	((4.017322e-03 1.530200e-03 -5.398594e-21) (4.691101e-05 8.857491e-08 2.996695e-08) (0.000000e+00 0.000000e+00 0.000000e+00)) ((-2.296020e-04 6.025444e-04 2.166079e-04) (-1.840104e-08 7.015062e-06 4.418271e-08) (0.000000e+00 0.000000e+00 0.000000e+00))
81           	((4.165574e-03 1.408961e-03 -5.391986e-21) (4.486316e-05 1.480724e-06 5.121427e-08) (0.000000e+00 0.000000e+00 0.000000e+00)) ((-2.114125e-04 6.247694e-04 1.873899e-04) (-2.274012e-07 6.703752e-06 2.558988e-07) (0.000000e+00 0.000000e+00 0.000000e+00))
82           	((4.265586e-03 1.288023e-03 -5.387022e-21) (4.339517e-05 3.012013e-06 7.547800e-08) (0.000000e+00 0.000000e+00 0.000000e+00)) ((-1.932831e-04 6.397610e-04 1.581606e-04) (-4.572579e-07 6.478817e-06 4.457129e-07) (0.000000e+00 0.000000e+00 0.000000e+00))
83           	((4.308762e-03 1.141591e-03 -5.380778e-21) (4.234975e-05 4.645979e-06 9.316322e-08) (0.000000e+00 0.000000e+00 0.000000e+00)) ((-1.713282e-04 6.462364e-04 1.234249e-04) (-7.027035e-07 6.317602e-06 6.323626e-07) (0.000000e+00 0.000000e+00 0.000000e+00))
84           	((4.502233e-03 1.117071e-03 -5.371471e-21) (4.126918e-05 6.255830e-06 9.912590e-08) (0.000000e+00 0.000000e+00 0.000000e+00)) ((-1.676511e-04 6.752519e-04 1.143402e-04) (-9.448095e-07 6.151931e-06 8.552159e-07) (0.000000e+00 0.000000e+00 0.000000e+00))
85           	((4.817531e-03 1.253794e-03 -5.355085e-21) (3.990698e-05 7.368194e-06 9.787206e-08) (0.000000e+00 0.000000e+00 0.000000e+00)) ((-1.881553e-04 7.225388e-04 1.400002e-04) (-1.112499e-06 5.944456e-06 1.083397e-06) (0.000000e+00 0.000000e+00 0.000000e+00))
86           	((5.165062e-03 1.431610e-03 -5.333609e-21) (3.835761e-05 7.823451e-06 1.008981e-07) (0.000000e+00 0.000000e+00 0.000000e+00)) ((-2.148406e-04 7.746510e-04 1.753965e-04) (-1.181729e-06 5.708392e-06 1.262551e-06) (0.000000e+00 0.000000e+00 0.000000e+00))
87           	((5.297266e-03 1.469289e-03 -5.307271e-21) (3.696380e-05 7.930300e-06 1.144835e-07) (0.000000e+00 0.000000e+00 0.000000e+00)) ((-2.204990e-04 7.944540e-04 1.841454e-04) (-1.198604e-06 5.494335e-06 1.365175e-06) (0.000000e+00 0.000000e+00 0.000000e+00))
88           	((5.147698e-03 1.348508e-03 -5.277883e-21) (3.595612e-05 8.125455e-06 1.356712e-07) (0.000000e+00 0.000000e+00 0.000000e+00)) ((-2.023731e-04 7.719954e-04 1.629212e-04) (-1.228569e-06 5.337090e-06 1.378333e-06) (0.000000e+00 0.000000e+00 0.000000e+00))
89           	((5.133390e-03 1.297098e-03 -5.247240e-21) (3.523040e-05 8.524976e-06 1.550292e-07) (0.000000e+00 0.000000e+00 0.000000e+00)) ((-1.946539e-04 7.698344e-04 1.556567e-04) (-1.288894e-06 5.221929e-06 1.317483e-06) (0.000000e+00 0.000000e+00 0.000000e+00))
90           	((5.508343e-03 1.428323e-03 -5.216922e-21) (3.414269e-05 8.589159e-06 1.701373e-07) (0.000000e+00 0.000000e+00 0.000000e+00)) ((-2.143429e-04 8.260679e-04 1.842769e-04) (-1.298805e-06 5.052567e-06 1.201486e-06) (0.000000e+00 0.000000e+00 0.000000e+00))
91           	((6.025754e-03 1.626633e-03 -5.186943e-21) (3.237551e-05 7.959977e-06 1.874694e-07) (0.000000e+00 0.000000e+00 0.000000e+00)) ((-2.440663e-04 9.036581e-04 2.265511e-04) (-1.204864e-06 4.780845e-06 1.002393e-06) (0.000000e+00 0.000000e+00 0.000000e+00))
92           	((6.040290e-03 1.665485e-03 -5.161590e-21) (3.032087e-05 6.702694e-06 2.078603e-07) (0.000000e+00 0.000000e+00 0.000000e+00)) ((-2.498502e-04 9.058291e-04 2.361947e-04) (-1.016453e-06 4.465371e-06 6.610406e-07) (0.000000e+00 0.000000e+00 0.000000e+00))
93           	((5.965640e-03 1.479344e-03 -5.143576e-21) (2.863965e-05 5.183259e-06 2.282939e-07) (0.000000e+00 0.000000e+00 0.000000e+00)) ((-2.219215e-04 8.946312e-04 1.986990e-04) (-7.888667e-07 4.206335e-06 1.088546e-07) (0.000000e+00 0.000000e+00 0.000000e+00))
94           	((6.116169e-03 1.253895e-03 -5.134813e-21) (2.742291e-05 3.660639e-06 2.482204e-07) (0.000000e+00 0.000000e+00 0.000000e+00)) ((-1.881145e-04 9.171988e-04 1.551170e-04) (-5.611248e-07 4.016808e-06 -7.185312e-07) (0.000000e+00 0.000000e+00 0.000000e+00))
95           	((6.706640e-03 1.213465e-03 -5.134983e-21) (2.599532e-05 1.721128e-06 2.666144e-07) (0.000000e+00 0.000000e+00 0.000000e+00)) ((-1.820635e-04 1.005756e-03 1.539821e-04) (-2.713829e-07 3.795589e-06 -1.855195e-06) (0.000000e+00 0.000000e+00 0.000000e+00))
96           	((7.292019e-03 1.441991e-03 -5.141348e-21) (2.359134e-05 -6.246735e-07 2.832583e-07) (0.000000e+00 0.000000e+00 0.000000e+00)) ((-2.163138e-04 1.093536e-03 2.125117e-04) (7.873426e-08 3.427968e-06 -3.113830e-06) (0.000000e+00 0.000000e+00 0.000000e+00))
97           	((8.020242e-03 2.080181e-03 -5.160562e-21) (2.038553e-05 -3.828489e-06 2.993678e-07) (0.000000e+00 0.000000e+00 0.000000e+00)) ((-3.120338e-04 1.202761e-03 3.614537e-04) (5.582517e-07 2.939690e-06 -4.518645e-06) (0.000000e+00 0.000000e+00 0.000000e+00))
98           	((8.387589e-03 2.687992e-03 -5.186671e-21) (1.641398e-05 -7.972637e-06 3.144504e-07) (0.000000e+00 0.000000e+00 0.000000e+00)) ((-4.032163e-04 1.257820e-03 4.994811e-04) (1.180125e-06 2.335793e-06 -6.014024e-06) (0.000000e+00 0.000000e+00 0.000000e+00))
99           	((8.476254e-03 3.068888e-03 -5.220383e-21) (1.262453e-05 -1.220832e-05 3.308334e-07) (0.000000e+00 0.000000e+00 0.000000e+00)) ((-4.603422e-04 1.271090e-03 5.875406e-04) (1.817021e-06 1.758704e-06 -7.423804e-06) (0.000000e+00 0.000000e+00 0.000000e+00))
100          	((8.983544e-03 3.477455e-03 -5.259034e-21) (9.072314e-06 -1.626413e-05 3.427684e-07) (0.000000e+00 0.000000e+00 0.000000e+00)) ((-5.215916e-04 1.347149e-03 6.821708e-04) (2.428310e-06 1.218602e-06 -8.772692e-06) (0.000000e+00 0.000000e+00 0.000000e+00))
101          	((9.366684e-03 3.877442e-03 -5.303372e-21) (5.488709e-06 -2.025078e-05 3.503937e-07) (0.000000e+00 0.000000e+00 0.000000e+00)) ((-5.816163e-04 1.404578e-03 7.680934e-04) (3.030314e-06 6.752640e-07 -1.005530e-05) (0.000000e+00 0.000000e+00 0.000000e+00))
102          	((9.478847e-03 4.024851e-03 -5.359380e-21) (2.164621e-06 -2.419143e-05 3.531883e-07) (0.000000e+00 0.000000e+00 0.000000e+00)) ((-6.038780e-04 1.421338e-03 7.920053e-04) (3.626114e-06 1.719739e-07 -1.129170e-05) (0.000000e+00 0.000000e+00 0.000000e+00))
103          	((9.705229e-03 3.907386e-03 -5.424801e-21) (-7.991919e-07 -2.788588e-05 3.584701e-07) (0.000000e+00 0.000000e+00 0.000000e+00)) ((-5.863544e-04 1.455226e-03 7.549380e-04) (4.184962e-06 -2.777939e-07 -1.252293e-05) (0.000000e+00 0.000000e+00 0.000000e+00))
104          	((1.068723e-02 3.926482e-03 -5.487471e-21) (-3.873694e-06 -3.132352e-05 3.610713e-07) (0.000000e+00 0.000000e+00 0.000000e+00)) ((-5.890973e-04 1.602504e-03 7.475652e-04) (4.705515e-06 -7.424785e-07 -1.378224e-05) (0.000000e+00 0.000000e+00 0.000000e+00))
105          	((1.187483e-02 4.298649e-03 -5.543445e-21) (-8.284659e-06 -3.521162e-05 3.600767e-07) (0.000000e+00 0.000000e+00 0.000000e+00)) ((-6.446401e-04 1.780604e-03 8.126702e-04) (5.294781e-06 -1.406747e-06 -1.514557e-05) (0.000000e+00 0.000000e+00 0.000000e+00))
106          	((1.228647e-02 5.041347e-03 -5.587546e-21) (-1.336402e-05 -3.959316e-05 3.665882e-07) (0.000000e+00 0.000000e+00 0.000000e+00)) ((-7.559960e-04 1.842284e-03 9.458440e-04) (5.957866e-06 -2.172871e-06 -1.635295e-05) (0.000000e+00 0.000000e+00 0.000000e+00))
107          	((1.252497e-02 5.985351e-03 -5.613655e-21) (-1.813470e-05 -4.496009e-05 3.720346e-07) (0.000000e+00 0.000000e+00 0.000000e+00)) ((-8.975290e-04 1.878093e-03 1.121624e-03) (6.768831e-06 -2.892439e-06 -1.745220e-05) (0.000000e+00 0.000000e+00 0.000000e+00))
108          	((1.270363e-02 6.945485e-03 -5.620567e-21) (-2.245913e-05 -5.106563e-05 3.626423e-07) (0.000000e+00 0.000000e+00 0.000000e+00)) ((-1.041484e-03 1.904975e-03 1.298874e-03) (7.690969e-06 -3.542526e-06 -1.843303e-05) (0.000000e+00 0.000000e+00 0.000000e+00))
109          	((1.312415e-02 7.463139e-03 -5.614943e-21) (-2.659955e-05 -5.732219e-05 3.462191e-07) (0.000000e+00 0.000000e+00 0.000000e+00)) ((-1.119023e-03 1.968094e-03 1.384268e-03) (8.636483e-06 -4.164725e-06 -1.933097e-05) (0.000000e+00 0.000000e+00 0.000000e+00))
110          	((1.351461e-02 7.737764e-03 -5.597548e-21) (-3.078921e-05 -6.302776e-05 3.288969e-07) (0.000000e+00 0.000000e+00 0.000000e+00)) ((-1.159949e-03 2.026710e-03 1.413170e-03) (9.499999e-06 -4.794825e-06 -2.018572e-05) (0.000000e+00 0.000000e+00 0.000000e+00))
111          	((1.343556e-02 7.918595e-03 -5.578141e-21) (-3.508125e-05 -6.835051e-05 3.022874e-07) (0.000000e+00 0.000000e+00 0.000000e+00)) ((-1.187012e-03 2.014925e-03 1.410389e-03) (1.030803e-05 -5.438580e-06 -2.097508e-05) (0.000000e+00 0.000000e+00 0.000000e+00))