/*--------------------------------*- C++ -*----------------------------------*\
| =========                 |                                                 |
| \\      /  F ield         | OpenFOAM: The Open Source CFD Toolbox           |
|  \\    /   O peration     | Version:  4.0                                   |
|   \\  /    A nd           | Web:      www.OpenFOAM.org                      |
|    \\/     M anipulation  |                                                 |
\*---------------------------------------------------------------------------*/
FoamFile
{
    version     2.0;
    format      ascii;
    class       volScalarField;
    location    "600";
    object      nut;
}
// * * * * * * * * * * * * * * * * * * * * * * * * * * * * * * * * * * * * * //

dimensions      [0 2 -1 0 0 0 0];

internalField   nonuniform List<scalar> 
14558
(
0.0303074
0.0171338
0.0291978
0.016549
0.0762187
0.019003
0.0103981
0.00720611
0.00364313
0.00988187
0.0271319
0.0109091
0.105206
0.00477003
0.0611118
0.0148292
0.0169686
0.0273834
0.0615551
0.00142168
0.0168041
0.00382389
0.116882
0.0177239
0.0262715
0.113341
0.0201139
0.0154614
0.0111506
0.00307281
0.00186569
0.0248778
0.0776759
0.0145979
0.02574
0.0457515
0.114719
0.00767254
0.0492089
0.0039959
0.0207155
0.00292432
0.0205511
0.00543747
0.019533
0.0191476
0.114885
0.00588665
0.00175778
0.00385746
0.0249335
0.00213376
0.00179023
0.0471804
0.00187312
0.0486959
0.0338735
0.0105384
0.0518579
0.00430942
0.0256358
0.0107665
0.0444849
0.0105091
0.0195718
0.0702529
0.104945
0.00427109
0.00320894
0.0748378
0.00316231
0.0240915
0.0280137
0.0135466
0.00607022
0.0413442
0.00345729
0.0188872
0.0526463
0.00412883
0.0161311
0.0256034
0.00716622
0.0043346
0.0285638
0.0150621
0.0103274
0.00214263
0.0249387
0.027889
0.0145544
0.00262738
0.0352087
0.0272947
0.0163206
0.00125332
0.064318
0.10935
0.109884
0.00727802
0.0118944
0.0195964
0.0785402
0.0196617
0.0304834
0.0944128
0.0100897
0.00345364
0.0755667
0.111871
0.0606991
0.0239393
0.126947
0.120115
0.0194186
0.00787739
0.018308
0.0456438
0.00243437
0.00680215
0.029191
0.0192365
0.0963834
0.044566
0.00931895
0.0363664
0.0222232
0.00440489
0.0277825
0.0146819
0.0171358
0.056834
0.0481726
0.0765253
0.118126
0.00115045
0.00495424
0.027083
0.0177853
0.0174607
0.0511766
0.032725
0.0061517
0.0412816
0.0224833
0.0551676
0.0611665
0.00247081
0.0653476
0.0950399
0.0644334
0.00843126
0.0392756
0.020392
0.00156592
0.118107
0.0157543
0.0021464
0.0706557
0.00617648
0.0214311
0.0244646
0.0227304
0.0605066
0.0243984
0.0019749
0.111406
0.00570621
0.0653948
0.0627359
0.134931
0.00709911
0.0040871
0.000488888
0.00332589
0.00415528
0.0310748
0.00252755
0.0934752
0.0200088
0.0553925
0.109357
0.0189176
0.042161
0.0640048
0.000543729
0.0279032
0.0345421
0.00247226
0.0262804
0.000855226
0.0589901
0.00337657
0.105968
0.00236072
0.00491333
0.00197522
0.0728615
0.00340033
0.00250729
0.0526574
0.105925
0.00463314
0.0688706
0.0433448
0.00247871
0.0803027
0.0255693
0.0253172
0.0276841
0.0283529
0.101166
0.111895
0.0143185
0.0690635
0.0980113
0.0566622
0.00279921
0.000829186
0.00314908
0.0187506
0.0420689
0.0285055
0.0300887
0.0849839
0.0256236
0.0105863
0.00216138
0.00370817
0.127804
0.0855631
0.0639029
0.0463455
0.0208304
0.0238419
0.00651394
0.0187841
0.00176063
0.0374061
0.0108231
0.0496548
0.0719197
0.0156398
0.00274134
0.0107195
0.00744539
0.0970756
0.0153194
0.00510642
0.0096685
0.00243787
0.111136
0.102973
0.0319957
0.00235224
0.00634013
0.0637809
0.0051527
0.113522
0.134507
0.135477
0.0367402
0.0167623
0.0357303
0.0140342
0.0176667
0.0144043
0.0495501
0.0026267
0.00676746
0.0416168
0.0676458
0.00938148
0.00221895
0.121987
0.00494876
0.00440626
0.00451056
0.00453268
0.016212
0.0930352
0.0492997
0.110305
0.0420492
0.045586
0.0404859
0.0235185
0.0174239
0.0406788
0.00335386
0.0235668
0.121579
0.0669312
0.0050517
0.00131725
0.0466327
0.00500918
0.0212632
0.0124247
0.0627278
0.00462809
0.00318928
0.00431542
0.00271857
0.0815778
0.0407008
0.0590387
0.110115
0.0605376
0.0401715
0.0289101
0.0334012
0.0295095
0.106629
0.00213439
0.018335
0.0644896
0.0842705
0.0330612
0.0693019
0.0011813
0.0300708
0.00662069
0.000561454
0.00580155
0.037004
0.0220426
0.00264061
0.109661
0.0284176
0.106874
0.00296271
0.000328758
0.0161014
0.00741306
0.0181755
0.0204401
0.0207121
0.0141775
0.0144165
0.00752963
0.0597963
0.0720793
0.100637
0.017611
0.00444503
0.028826
0.00967225
0.0273124
0.0026176
0.0388928
0.00332226
0.0033804
0.0115354
0.00725355
0.0695662
0.0486128
0.0206692
0.00664517
0.00633052
0.120567
0.00223503
0.0678861
0.050623
0.00300807
0.135747
0.0513779
0.0164289
0.00230266
0.00813597
0.0536436
0.0994367
0.0266891
0.0293751
0.0219078
0.0625336
0.0272502
0.0156302
0.0296415
0.0348209
0.0138225
0.031914
0.0587638
0.086659
0.125446
0.0127022
0.0292935
0.0467797
0.00321843
0.0158697
0.0641908
0.0250807
0.0712549
0.00313452
0.0258067
0.0269364
0.055451
0.00452097
0.00815609
0.0910893
0.00508535
0.00480177
0.119475
0.0206319
0.0235674
0.0013989
0.00700351
0.0217994
0.0376451
0.0220571
0.0957052
0.00228648
0.0106272
0.0682754
0.0322455
0.00962085
0.0726896
0.0165491
0.0794971
0.0305331
0.0405731
0.00565321
0.0262073
0.0256741
0.0110144
0.0326628
0.0243729
0.0285608
0.0200686
0.00819156
0.0591926
0.040929
0.0206305
0.00230558
0.0255627
0.0964553
0.069208
0.0708089
0.0727989
0.0524566
0.0316731
0.0130463
0.0034397
0.0219229
0.00842329
0.0719173
0.0993932
0.0927183
0.05768
0.00726825
0.0167173
0.00414067
0.0507403
0.064545
0.0428475
0.0209847
0.0520033
0.0173799
0.00732954
0.0723367
0.0344621
0.0219406
0.040537
0.0281564
0.0248023
0.00129483
0.0679801
0.00360135
0.0944022
0.0026667
0.0307001
0.00724728
0.0352452
0.0245738
0.0701903
0.116422
0.0231353
0.00706848
0.0828427
0.0687776
0.00828326
0.0197478
0.0206925
0.0323495
0.00349796
0.013834
0.000405035
0.00214694
0.023435
0.0268085
0.00259043
0.00315644
0.0343728
0.0106171
0.0608043
0.00457991
0.0580116
0.00501946
0.0416033
0.0140092
0.00203871
0.0127369
0.0151062
0.045625
0.0394319
0.00702944
0.0255394
0.0975787
0.0713266
0.0361546
0.0168132
0.0210486
0.00823245
0.0421179
0.102778
0.0497788
0.0863046
0.0151522
0.0339214
0.0254931
0.132721
0.0239541
0.00460097
0.0452535
0.0017647
0.0142968
0.00435319
0.00474029
0.020917
0.00416739
0.0860548
0.0313766
0.0404672
0.042881
0.0309922
0.00630215
0.0130658
0.0895762
0.0365787
0.000767734
0.00423529
0.00172781
0.0126939
0.0189491
0.00272189
0.00576719
0.0074699
0.1037
0.00416584
0.116437
0.0726317
0.00571573
0.00523628
0.0407158
0.024386
0.0164076
0.0530763
0.0176554
0.00219081
0.0880029
0.0141939
0.0667954
0.00646861
0.0670278
0.0146429
0.0149921
0.0338664
0.0505777
0.0278846
0.054752
0.134511
0.0033373
0.0297887
0.0709636
0.0342808
0.0338452
0.0187379
0.0834958
0.037456
0.0185304
0.0701631
0.0890854
0.0126274
0.0279624
0.0505065
0.0883665
0.00923997
0.0153946
0.0124091
0.0904513
0.0385756
0.0220923
0.0102349
0.0211031
0.017812
0.0488788
0.0199835
0.0252854
0.0300131
0.0120978
0.00147761
0.00283419
0.0147411
0.00654743
0.0391933
0.0135625
0.00446427
0.123855
0.0343018
0.10036
0.0181456
0.00277561
0.022468
0.023074
0.0333693
0.0862938
0.0507334
0.024216
0.0146805
0.00397303
0.0323349
0.00290989
0.0952016
0.0906617
0.0670623
0.0590581
0.0499122
0.0303844
0.0116408
0.00102541
0.0539948
0.0274174
0.0141248
0.0597405
0.0599568
0.0204512
0.137376
0.0851476
0.00270869
0.0115644
0.00219941
0.00906112
0.0173417
0.00189108
0.0672803
0.030607
0.025024
0.040273
0.124783
0.0144931
0.087918
0.00765454
0.020771
0.00428683
0.00343005
0.0264466
0.00144469
0.0246666
0.00291235
0.0440966
0.0597308
0.0652612
0.000776468
0.106783
0.0395988
0.0504498
0.0316391
0.134724
0.00349293
0.00283468
0.0646149
0.0107536
0.00853514
0.0915905
0.0462715
0.00708669
0.0242508
0.0166249
0.0431566
0.00201208
0.0489178
0.00512449
0.00253375
0.0649899
0.0941318
4.62243e-05
0.0168407
0.0116238
0.053532
0.00105085
0.000664005
0.0267843
0.00220669
0.00441471
0.0033493
0.0358911
0.0240156
0.116856
0.0966093
0.00273437
0.0550728
0.0271506
0.000533466
0.0620648
0.0760873
0.00760626
0.0597825
0.0279915
0.0293386
0.0251478
0.0884787
0.0132063
0.0241572
0.0101101
0.00491909
0.0146029
0.0599984
0.0203743
0.0141869
0.0204621
0.0061988
0.0037188
0.0973519
0.0565109
0.0314423
0.0573971
0.00680971
0.0126448
0.0665812
0.0787201
0.0098609
0.00388175
0.0231161
0.00383674
0.0580963
0.009663
0.0595705
0.0747284
0.00439168
0.00215503
0.0503821
0.0176399
0.00370998
0.0213557
0.0397725
0.0254447
0.0834262
0.0298978
0.0119927
0.00302353
0.0118495
0.0256423
0.0261799
0.00556232
0.0104252
0.00281666
0.0545911
0.0277677
0.0483201
0.0272408
0.0634877
0.00999151
0.0300971
0.0268828
0.00662599
0.00203658
0.0717393
0.0149111
0.0818638
0.0491393
0.0184401
0.0417111
0.00336487
0.0709935
0.0189364
0.0139176
0.0284934
0.0163725
0.00317916
0.117541
0.0600075
0.135227
0.0889266
0.00447937
0.0351202
0.0112421
0.0242922
0.0180585
0.0118419
0.0271623
0.0260068
0.0238144
0.021449
0.00439438
0.12136
0.0048263
0.0906957
0.0205415
0.021801
0.00566687
0.0240296
0.0300664
0.00966327
0.0105845
0.019482
0.0219731
0.01585
0.0104672
0.000272113
0.0284998
0.00343389
0.0351439
0.0149628
0.0412522
0.0192582
0.0256489
0.000375844
0.0217725
0.107637
0.0588641
0.00219685
0.116806
0.00844696
0.0450836
0.0124441
0.0296306
0.024205
0.00483152
0.0229124
0.0113962
0.0424771
0.00476316
0.059192
0.0185789
0.0212107
0.00036854
0.00221851
0.00993986
0.0031741
0.0093033
0.0154007
0.00125268
0.00257565
0.0229476
0.0219193
0.00602344
0.0499203
0.00982794
0.0924019
0.087334
0.00957728
0.0297023
0.00194085
0.0285533
0.00266239
0.0199668
0.000402175
0.0158445
0.0686344
0.024043
0.00216019
0.0661013
0.0252822
0.0774472
0.00566837
0.00617938
0.00485665
0.00857712
0.00954325
0.0654302
0.1025
0.0222867
0.0783783
0.00692621
0.0143132
0.00737465
0.0054627
0.0110347
0.0429328
0.0155457
0.0764388
0.0203668
0.118081
0.0657813
0.00493771
0.00300474
0.0191307
0.126902
0.00436958
0.0165706
0.0193341
0.0774504
0.0146095
0.0197014
0.0363041
0.00557071
0.056366
0.00295721
0.021646
0.00286966
0.0178929
0.00429551
0.0846149
0.0807547
0.0100231
0.00816358
0.116969
0.0732627
0.00237996
0.0199397
0.105465
0.0142053
0.00271059
0.00706379
0.00313789
0.0658408
0.103572
0.00234667
0.0188394
0.00294269
0.00281476
0.00820357
0.0128867
0.00924629
0.0228588
0.00917506
0.00649349
0.0864409
0.0165227
0.0152392
0.0158737
0.0589402
0.00804749
0.0300992
0.0263396
0.0352119
0.0558424
0.122878
0.00548109
0.0383428
0.00300015
0.0307843
0.0726768
0.0462333
0.0358161
0.0274854
0.0301158
0.00220014
0.00228582
0.0289152
0.0218488
0.0561732
0.00208875
0.0160633
0.00230478
0.0125828
0.0356697
0.000447172
0.0260401
0.0321769
0.0541836
0.0424806
0.0230537
0.0279043
0.00510298
0.0964769
0.00456799
0.00357195
0.0549544
0.00225934
0.0194901
0.00278064
0.0178342
0.0212693
0.002302
0.0474968
0.024326
0.0748987
0.00682657
0.0642528
0.0179253
0.00645798
0.0218412
0.0191659
0.0255408
0.024516
0.016316
0.0687477
0.113742
0.0048552
0.0544599
0.0680586
0.0273047
0.00567299
0.0607087
0.00520634
0.121541
0.000395309
0.00253909
0.117392
0.0302531
0.0671575
0.0186097
0.0257079
0.0350424
0.0146983
0.0996518
0.0514439
0.0193326
0.0635908
0.105075
0.00156056
0.00616922
0.0590023
0.0700649
0.0543658
0.0240328
0.00862281
0.0853051
0.023973
0.0588806
0.0177189
0.0373344
0.0555014
0.00276355
0.0318778
0.03377
0.0291451
0.0275336
0.0320459
0.113338
0.0200256
0.0138354
0.00430712
0.0106714
0.0626406
0.000553048
0.0243485
0.0209307
0.0155052
0.0312477
0.0601986
0.0118571
0.000947083
0.00854014
0.00532263
0.0249351
0.0511749
0.0376461
0.0574795
0.00637401
0.00870655
0.0136316
0.00624293
0.0508942
0.0762601
0.0487152
0.0122618
0.0174722
0.110883
0.0327234
0.0220992
0.0431575
0.00278735
0.0227556
0.0301656
0.027276
0.130149
0.0996369
0.0313575
0.00139757
0.00962357
0.012946
0.00739237
0.109044
0.00323056
0.00283895
0.0225038
0.0423051
0.0791264
0.00370667
0.0521235
0.00645131
0.0206767
0.0297305
0.0411018
0.0262558
0.00439129
0.0236147
0.0349577
0.0442598
0.0563761
0.00354563
0.102139
0.0939447
0.0203014
0.109023
0.127835
0.00388972
0.0182603
0.0145286
0.0453744
0.0542901
0.0360663
0.00196287
0.0203199
0.0582696
0.0217635
0.00692983
0.0840485
0.00218941
0.0874363
0.0250359
0.0419823
0.0119174
0.0729224
0.0371083
0.00719688
0.119294
0.00102333
0.0167233
0.0109604
0.0104753
0.136132
0.0151125
0.0164268
0.0205931
0.014443
0.015767
0.0253823
0.0863314
0.0514949
0.00825626
0.000883768
0.0541137
0.0328599
0.00749647
0.00812009
0.0848358
0.0049533
0.00724081
0.033794
0.0187535
0.106174
0.00283197
0.0456105
0.000122495
0.0303269
0.0349811
0.00303796
0.00688747
0.00228809
0.0103329
0.0268132
0.0109633
0.0786469
0.0008381
0.0363966
0.1177
0.00273849
0.0283008
0.0479196
0.0646981
0.00425196
0.00332376
0.00147668
0.0347707
0.00427294
0.0746423
0.00697929
0.00408949
0.00555448
0.0119783
0.00484035
0.00314906
0.0559953
0.0234088
0.0408248
0.0277249
0.123179
0.0775907
0.133628
0.0034322
0.0006077
0.00670931
0.13493
0.0661939
0.0032802
0.0371586
0.00329907
0.00233818
0.00970686
0.027928
0.0102013
0.00525115
0.0258669
0.0218875
0.00144
0.00107341
0.0132206
0.0036874
0.0818872
0.00143272
0.0795393
0.0686222
0.0191155
0.00484005
0.0272919
0.00386244
0.0557475
0.0260431
0.0208923
0.0373631
0.0536272
0.00402606
0.0133093
0.00510334
0.00357841
0.0221763
0.0159559
0.0242045
0.111005
0.0109279
0.0182095
0.00352371
0.0624958
0.0669678
0.00316774
0.0111226
0.0566795
0.0145403
0.00416865
0.00703383
0.0464095
0.00838105
0.0179358
0.00328464
0.0456906
0.0376832
0.042354
0.0668801
0.00738295
0.00163569
0.00796455
0.0647009
0.00360241
0.106514
0.00344983
0.00403997
0.0084553
0.0159863
0.00186108
0.00744341
0.00408008
0.0202449
0.0066019
0.00347388
0.0248464
0.0124488
0.0358771
0.0354772
0.00458371
0.0559126
0.0226174
0.0416823
0.00158937
0.121428
0.0342339
0.00120181
0.0085899
0.0036399
0.0403561
0.0604307
0.0190068
0.0318918
0.0826346
0.0246099
0.0315483
0.00731801
0.0560253
0.0142757
0.0169181
0.00662865
0.0892475
0.00386292
0.00391505
0.0955045
0.0139382
0.00403034
0.0861759
0.0217953
0.0112801
0.0240074
0.0323606
0.117306
0.00221452
0.0346788
0.00343427
0.0152331
0.0164986
0.0567504
0.00224702
0.00236509
0.0235684
0.017761
0.0487625
0.119313
0.00928839
0.0139266
0.0649547
0.010959
0.00249619
0.0051592
0.00196926
0.00342844
0.038131
0.0300857
0.137738
0.00239997
0.00263226
0.0745338
0.0521675
0.00802593
0.0187286
0.00247289
0.0782063
0.0476233
0.0428104
0.112156
0.0155177
0.0298726
0.0417611
0.0794498
0.0675987
0.00462431
0.000665079
0.0014968
0.0620699
0.0879276
0.00462317
0.106719
0.0765269
0.0183737
0.0940059
0.00163378
0.00838217
0.0464972
0.0651779
0.131714
0.00255253
0.0292932
0.0277511
0.00307658
0.0125652
0.0119245
0.00289326
0.0412451
0.0167083
0.0740445
0.128779
0.024001
0.0380076
0.0464272
0.00446832
0.0220946
0.00782071
0.00811065
0.0158031
0.00617957
0.00556371
0.0162162
0.00342315
0.0374253
0.00250705
0.0825733
0.0651401
0.0112789
0.0455797
0.00552773
0.026382
0.0345093
5.04953e-05
0.0217082
0.123058
0.0223164
0.020386
0.0265932
0.0331223
0.00721096
0.049968
0.0378501
0.00782273
0.038292
0.00473102
0.029911
0.0748314
0.0714289
0.0986495
0.0804998
0.00777202
0.0231791
0.0320866
0.0190138
0.00665752
0.0134079
0.026151
0.0332441
0.029195
0.031436
0.0299431
0.0781991
0.00336005
0.0183606
0.0346473
0.0358997
0.00675254
0.0666424
0.00457961
0.00445868
0.0285795
0.0527232
0.0159029
0.00456911
0.0129942
0.0145387
0.0120793
0.057059
0.0137788
0.018629
0.00229106
0.00418666
0.0405922
0.000413454
0.0767289
0.00505858
0.0226983
0.0140745
0.0402055
0.134746
0.00122306
0.0561449
0.00654418
0.00614883
0.0047995
0.0670696
0.0234103
0.0531964
0.0273762
0.020479
0.0120352
0.0974101
0.0529408
0.0193325
0.0371983
0.0639181
0.019275
0.0380245
0.0607323
0.0162684
0.131855
0.00493137
0.00198471
0.00345316
0.0113913
0.0498985
0.122944
0.00703938
0.0218336
0.0125983
0.0533114
0.0494824
0.00471849
0.038748
0.0176539
0.0156278
0.00382915
0.00164755
0.0150053
0.0532771
0.0230719
0.00103232
1.44122e-07
0.00223764
0.0158296
0.00324966
0.0029073
0.0302026
0.000417404
0.00849436
0.000665362
0.0331325
0.0885738
0.0673526
0.0254947
0.0494255
0.055052
0.0121121
0.00830231
0.00772021
0.0215177
0.0146035
0.00702049
0.0213022
0.037283
0.0279374
0.0121078
0.0977715
0.0472103
0.0717217
0.0562746
0.00714014
0.00519674
0.0753137
0.0598774
0.0393364
0.000707809
0.0143538
0.0906863
0.00844446
0.0343896
0.00770449
0.0204824
0.0237046
0.0579196
0.00389287
0.00610999
0.006724
0.0179352
0.0302451
0.00349991
0.00543794
0.00836631
0.00427789
0.00230061
0.0483641
0.00202502
0.0319404
0.0446346
0.0204484
0.0166728
0.00296728
0.0131952
0.00106844
0.0443776
0.0152358
0.0800446
0.0448866
0.0136853
0.0333344
0.05945
0.0521306
0.0183825
0.00541519
0.0162967
0.0530827
0.0110459
0.00236856
0.00441938
0.00367624
0.0099466
0.115804
0.0211589
1.3594e-06
0.00137168
0.00755284
0.0659239
0.0319066
0.0050008
0.000859501
0.00116845
0.018628
0.049758
0.0124664
0.0169591
0.122628
0.0315708
0.00200042
0.0785909
0.000957894
0.00703282
0.124265
0.11752
0.0289821
0.10068
0.0520567
0.0214755
0.0761831
0.0551886
0.0255572
0.0406223
0.0144398
0.0287499
0.00533673
0.0034432
0.00229154
0.0117979
0.0285872
0.00904809
0.0480124
0.0454556
0.00261164
0.0356506
0.0488124
0.0574677
0.00322869
0.0960734
0.11581
0.016947
0.0318337
0.00162034
0.0553296
0.00176129
0.00429908
0.0126009
0.0259568
0.00219061
0.0245924
0.0360751
0.103728
0.0105934
0.0402114
0.012184
0.0209325
0.0128317
0.00134758
0.0445582
0.023523
0.0214398
0.0208972
0.0154216
0.112355
0.0447365
0.124583
0.0221706
0.00583209
0.00629067
0.0525011
0.00360173
0.00694057
0.0190076
0.0295546
0.127987
0.00262054
0.0199827
0.0102115
0.0164272
0.00149217
0.0191456
0.00491566
0.00830748
0.00435683
0.112271
0.00487644
0.0346395
0.11295
0.0422963
0.0636065
0.0330813
0.00826105
0.0193236
0.0718524
0.0157273
0.0216019
0.0254351
0.0118382
0.0197133
0.0532861
0.0374915
0.0225459
0.0181049
0.0031132
0.00804806
0.0130777
0.0707237
0.0616937
0.0342257
0.00518304
0.00453358
0.0817926
0.0212717
0.000298134
0.0320076
0.00659255
0.0161151
0.0493584
0.034985
0.00888395
0.0252918
0.00626966
0.0681403
0.0202237
0.114608
0.0564209
0.104786
0.0229319
0.00299634
0.00585569
0.00524346
0.0237931
0.119647
0.0216241
0.00328235
0.064585
0.0253012
0.0230092
0.025236
0.0594431
0.0258494
0.038143
0.0538305
0.0462515
0.00234245
0.00435249
0.0288932
0.00929783
0.010532
0.0194085
0.0485482
0.0848278
0.0280628
0.066334
0.0367865
0.00732709
0.0964649
0.0699163
0.0481486
0.0211979
0.00867021
0.000265533
0.00902436
0.0239608
0.00860252
0.0119076
0.00107591
0.00443119
0.030042
0.0171102
0.0215284
0.00316067
0.0278934
0.000885143
0.0174003
0.0951418
0.00242798
0.0256614
0.0566626
0.0420295
0.00277249
0.0691547
0.0719419
0.0451116
0.0018772
0.0021638
0.00930925
0.0196076
0.0347832
0.0297375
0.000864944
0.00186459
0.0025399
0.0943497
0.0311386
0.0112383
0.013382
0.00418561
0.0642719
0.0252701
0.0181848
0.0194927
0.00602476
0.00517042
0.0276861
0.0250585
0.0263494
0.0237959
0.136145
0.00126785
0.0375043
0.0609508
0.0532122
0.0271296
0.0281842
0.0759466
0.026334
0.01914
0.116272
0.0238738
0.0198549
0.00137367
0.0621062
0.0425978
0.0130105
0.00917194
0.0742753
0.0125436
0.116202
0.0590966
0.0542909
0.0028472
0.0805329
0.00359693
0.00584144
0.0712128
0.123001
0.012839
0.0515116
0.0174959
0.0120051
0.000354912
0.00337189
0.0086739
0.000352242
0.00271346
0.0173162
0.0188631
0.0249852
0.00989137
0.0770621
0.0208381
0.0205304
0.0356291
0.0331998
0.0145697
0.109543
0.0228976
0.132618
0.00847953
0.0126502
0.0217256
0.0202273
0.0227476
0.0933603
0.00869294
0.00845515
0.0516788
0.00998041
0.0136203
0.031676
0.00215196
0.0231534
0.00774094
0.00258268
0.00350706
0.00242853
0.0848726
0.0312295
0.0271635
0.00297639
0.0255046
0.0433492
0.0372641
0.00521019
0.00201308
0.0160681
0.0474351
0.00172783
0.00378595
0.00427682
0.0699728
0.0276835
0.0523936
0.0137804
0.0198507
0.00219937
0.0785441
0.00339978
0.0199214
0.00466757
0.0173537
0.0849914
0.0163478
0.00912793
0.12368
0.0042284
0.137632
0.00245482
0.0616404
0.0198477
0.0858084
0.000473475
0.0352268
0.00275482
0.115593
0.0201639
0.00513507
0.0209275
0.00977104
0.0027658
0.0417719
0.0485663
0.0138339
0.0154411
0.0108487
0.00293258
0.052572
0.0123688
0.00296767
0.00283772
0.0336581
0.00395958
0.0351555
0.00235134
0.0129717
0.0437248
0.00444836
0.0277936
0.13215
0.0437125
0.115054
0.00957638
0.0151233
0.0220275
0.00291405
0.0387081
0.027064
0.106182
0.0107483
0.107588
0.0960369
0.00405737
0.0578276
0.0270365
0.0647375
0.00076436
0.00620192
0.00349476
0.0035527
0.00949721
0.00341973
0.12259
0.0700207
0.0615135
0.0154729
0.01224
0.0239462
0.0564748
0.0230316
0.00364685
0.0411119
0.0077562
0.000734941
0.0246422
0.00447523
0.0200886
0.00919383
0.0703234
0.0240078
0.00353489
0.0808675
0.00261475
0.0951886
0.00720309
0.00371861
0.0603028
0.00215476
0.0218717
0.0166844
0.0205889
0.0497345
0.0320149
0.0607752
0.0241292
0.0457043
0.04207
0.0558389
0.0405328
0.000702357
0.0293305
0.0624176
0.124752
0.00648678
0.0144084
0.00902953
0.129605
0.0225408
0.0112519
0.0203073
0.00868198
0.00443004
0.0224159
0.105549
0.135831
0.0345798
0.107883
0.0888307
0.0406032
0.00250506
0.00487767
0.00240626
0.0465702
0.0327002
0.0194895
0.0488268
0.0117614
0.101696
0.0496261
0.0178306
0.000731275
0.00562924
0.0112996
0.0125364
0.0200822
0.0169349
0.0362435
0.0629449
0.0334141
0.0137676
0.0713988
0.025084
0.124642
0.00638052
0.0724111
0.00548519
0.0128057
0.00577932
0.0648947
0.123572
0.0217952
0.110522
0.0237573
0.00310264
0.097912
0.00959403
0.0210707
0.00188246
0.0144749
0.00107515
0.0331967
0.0201759
0.115335
0.00671488
0.0626521
0.0657634
0.00976395
0.0170388
0.0876155
0.0383917
0.008892
0.0250445
0.110026
0.04305
0.0105846
0.0149567
0.0113469
0.0541722
0.0279205
0.0363603
0.00292094
0.00630191
0.0326521
0.0308819
0.00160075
0.0124875
0.00899579
0.00200117
0.0353974
0.00506785
0.0118311
0.0870718
0.0166025
0.0484168
0.0110366
0.119574
0.0331371
0.138928
0.0052681
0.0275695
0.0222257
0.0323524
0.0217637
0.113622
0.0721965
0.0184476
0.0497424
0.0502316
0.00290648
0.0235308
0.0120147
0.0214902
0.00601333
0.039442
0.0221134
0.0220985
0.00152872
0.0587885
0.035263
0.0463724
0.0132878
0.0509761
0.0316176
0.0304308
9.02353e-06
0.0672787
0.0884421
0.0250807
0.0148006
0.0064732
0.0260658
0.119392
0.0250651
0.00118191
0.00525898
0.0371153
0.00494174
0.00957204
0.00191958
0.0386623
0.00127967
0.0482574
0.041975
0.0205013
0.00417023
0.0121177
0.0108625
0.00287068
0.0249839
0.0448058
0.0643446
0.0265615
0.0202398
0.115706
0.0152165
0.0154102
0.00462126
0.0253743
0.0733127
0.0257759
0.019662
0.0211027
0.0447006
0.0297281
0.0150522
0.094644
0.00504464
0.00108659
0.00880246
0.00310224
0.00326008
0.0161776
0.0144023
0.00697994
0.0400891
0.00279611
0.00960499
0.015186
0.0156213
0.0116969
0.0595481
0.0170359
0.0271199
0.00901745
0.0399939
0.0260305
0.0236765
0.0222996
0.0819723
0.111362
0.0489601
0.00404356
0.0670692
0.0217558
0.00104198
0.00467232
0.118193
0.0295301
0.0247992
0.0630237
0.0736018
0.0198691
0.0183418
0.00371618
0.0810678
0.042311
0.0400283
0.0169474
0.00106029
0.00263628
0.0110843
0.0311899
0.00275908
0.0274991
0.0743516
0.0129328
0.0759733
0.0225445
0.0280059
0.127951
0.00132766
0.117109
0.0814301
0.0657761
0.0154968
0.00769997
0.00822419
0.00142406
0.00349483
0.0497578
0.0022574
0.041881
0.0403763
0.0347041
0.00335776
0.000713709
0.0597228
0.0310354
0.00469698
0.0287635
0.00578713
0.0589739
0.0115719
0.0265733
0.00833909
0.00252276
0.0242525
0.0187109
0.0667146
0.00728599
0.0210821
0.0802997
0.00877241
0.0401669
0.00362792
0.00875582
0.0210876
0.0150819
0.0174535
0.0176595
0.0162874
0.00415316
0.0210534
0.0579004
0.00105743
0.0312201
0.00694905
0.0505561
0.00610786
0.00149387
0.00951057
0.0556919
0.0644139
0.00218633
0.0140174
0.116084
0.00276251
0.0101014
0.00112873
0.092053
0.00363265
0.00549926
0.019758
0.00985197
0.00400545
0.0937719
0.0313468
0.0143263
0.0607517
0.0939264
0.0784004
0.0045586
0.00869192
0.0220686
0.022891
0.00475239
0.00711773
0.00776314
0.054204
0.00116572
0.0630308
0.00346519
0.0224946
0.0351
0.00333531
0.0115901
0.00194763
0.0628654
0.00462541
0.13768
0.00503232
0.0704515
0.00858599
0.0628277
0.00460019
0.00597262
0.00233764
0.00838363
0.00709707
0.0597297
0.0101538
0.0321961
0.0224833
0.015646
0.0185811
0.0131624
0.0313346
0.00241265
0.0306081
0.000904789
0.0644495
0.0554702
0.00580465
0.0271278
0.00530926
0.0270221
0.0160221
0.0332956
0.00230856
0.0110767
0.00871258
0.0225316
0.0153865
0.0227082
0.00245784
0.12765
0.0345212
0.0432327
0.0112193
0.0173281
0.00425922
0.024622
0.0389173
0.00509893
0.00316723
0.0143462
0.0984118
0.0260102
0.0745044
0.0134748
0.0555799
0.00243054
0.069836
0.0316636
0.041146
0.1295
0.0269446
0.0184959
0.0782636
0.00202561
0.0701253
0.0478565
0.0078731
0.0208172
0.0393442
0.0274514
0.0946232
0.00136064
0.00084751
0.0153391
0.112841
0.0123104
0.00145064
0.133501
0.00169653
0.113847
0.0285903
0.0737239
0.0236316
0.0538579
0.0314627
0.0207439
0.0654438
0.051767
0.0981105
0.0187066
0.0205195
0.0586737
0.138302
0.0803735
0.0062658
0.0593245
0.0957197
0.0124365
0.0948183
0.000410895
0.0139856
0.0179341
0.0221628
0.0498014
0.0587504
0.00802162
0.0123002
0.0735721
0.0610669
0.0123903
0.000106709
0.0122479
0.0625964
0.00201987
0.019008
0.0435781
0.111064
0.0333147
0.0169853
0.00458935
0.0443719
0.0509414
0.094793
0.00124615
0.00993307
0.00709165
0.0299168
0.000722436
0.086627
0.0253464
0.00355474
0.101346
0.0192407
0.00276292
0.0199896
0.00341595
0.0194452
0.040863
0.000954452
0.012781
0.0501865
0.00293906
0.0187755
0.0210417
0.00630716
0.00649543
0.0248634
0.0651599
0.0380403
0.0451382
0.00759266
0.00368456
0.011163
0.0921196
0.0486405
0.0171411
0.0757142
0.00334421
0.0106847
0.0164333
0.0175841
0.0138719
0.00255083
0.00328601
0.0823877
0.0867089
0.000949724
0.0489166
0.000754319
0.0210696
0.00633006
0.0315925
0.0749885
0.0232036
0.0133036
0.0327592
0.0915523
0.0214368
0.0348701
0.0679737
0.0937446
0.0134341
0.0141027
0.0228467
0.0257692
0.00880635
0.005879
0.0221751
0.0265337
0.0189354
0.129317
0.00290247
0.0193158
0.0516892
0.0121611
0.0232622
0.0596371
0.0248741
0.0895157
0.00644346
0.0364841
0.0142423
0.0260446
0.0102661
0.00950147
0.017352
0.0505477
0.0466185
0.00738692
0.0649792
0.0928268
0.0360052
0.00214325
0.114111
0.0715997
0.0198043
0.0143136
0.00954604
0.00230299
0.00136517
0.048729
0.063976
0.105387
0.00885302
0.040662
0.0198985
0.0220525
0.0908162
0.00626495
0.0108478
0.0212445
0.0177696
0.0346576
0.00331202
0.0303915
0.0282547
0.00472212
0.00748704
0.0252299
0.000747839
0.0475502
0.00225231
1.39252e-06
0.0375103
0.00412958
0.0623104
0.0182906
0.00396836
0.0288537
0.0142314
0.00172396
0.0577641
0.0693396
0.0132294
0.126016
0.0668816
0.0624739
0.0126299
0.0303661
0.00281094
0.00274978
0.00253423
0.0253379
7.39576e-05
0.0274231
0.00421551
0.0139378
0.0667953
0.00324008
0.024831
0.0412312
0.0243658
0.0221384
0.034388
0.111884
0.00356191
0.0216944
0.00945262
0.0314885
0.0303747
0.0336376
0.0215529
0.0031712
0.0827484
0.0280604
0.0115749
0.117333
0.0181423
0.00606276
0.0396997
0.00320645
0.0183451
0.029351
0.015091
0.0264597
0.0318931
0.0630051
0.00998882
0.0604838
0.0123418
0.0224001
0.0105772
0.00715549
0.0165954
0.00124147
0.0810949
0.00450065
0.00320392
0.00758145
0.0856471
0.0298958
0.0132819
0.00478823
0.0578707
0.00327704
0.0329886
0.0291199
0.00697701
0.0294439
0.0158724
0.0256035
0.0244387
0.0234116
0.0121991
0.0386954
0.00185786
0.00940327
0.017287
0.0289515
0.0367392
0.00281632
0.0192824
0.00299942
0.0346586
0.0383614
4.32332e-05
0.0339082
0.0160343
0.000552926
0.0510616
0.00424827
0.00745751
0.0387251
0.00187824
0.0582006
0.00688363
0.0408516
0.0210589
0.0518507
0.00940664
0.00116051
0.00821093
0.0936343
0.0216554
0.0556802
0.0203297
0.00406824
0.00747261
0.0950775
0.014078
0.00911204
0.0257248
0.0241796
0.0237993
0.00691111
0.00238043
0.0384829
0.135704
0.00514218
0.00722904
0.0583217
0.0237164
0.00480773
0.0776152
0.0365032
0.0078438
0.0282034
0.0331661
0.0470824
0.0119231
0.0222174
0.017398
0.000855221
0.0562115
0.00688454
0.0127133
0.00792436
0.0406666
0.0541486
0.00272861
0.00249219
0.0242449
0.0182277
0.0194561
0.0258782
0.00349951
0.0200826
0.0230808
0.00464056
0.126183
0.00539012
0.0116515
0.0366609
0.0173395
0.00482289
0.096285
0.000547122
0.0220905
0.0208535
0.00453144
0.0285125
0.0360249
0.0424627
0.0567778
0.00525126
0.017343
0.0558753
0.0317416
0.00338764
0.035416
0.00940125
0.0844215
0.037105
0.0177558
0.123425
0.00631997
0.0238464
0.0270413
0.136338
0.041541
0.0240794
0.118212
0.0306001
0.0171759
0.000693983
0.118984
0.0205912
0.114813
2.69904e-05
0.116687
0.0037194
0.00439954
0.0043127
0.00408541
0.0532308
0.0226058
0.00921954
0.0214681
0.00137984
0.00911322
0.0396607
0.0131661
0.0182231
0.0150918
0.00303373
0.0628465
0.114883
0.0512186
0.0239365
0.115613
0.0186516
0.0176003
0.0186361
0.018167
0.0066842
0.102564
0.0375265
0.00771032
0.0048073
0.0166726
0.0255162
0.00773666
0.0839547
0.0249811
0.0717804
0.112164
0.011963
0.038519
0.0223231
0.0605131
0.027977
0.00744205
0.0219248
0.00995059
0.00104818
0.0172904
0.0603932
0.0596703
0.00628501
0.0041883
0.0219038
0.0273237
0.0701611
0.0188888
0.0285033
0.0208555
0.0948673
0.00349987
0.00482412
0.0239748
0.0161558
0.0141792
0.108923
0.00403019
0.0765911
0.0940496
0.00458555
0.0980004
0.0114735
0.0531818
0.0239189
0.00227596
0.0673533
0.0297665
0.0186909
0.0569377
0.0127849
0.0113941
0.00184234
0.0677779
0.0144202
0.0156895
0.0666137
0.0720656
0.0380464
0.107799
0.0273712
0.0198746
0.00217668
0.0285115
0.114802
0.0015944
0.0594897
0.00715263
0.000986158
0.00380911
0.0141679
0.00264879
0.0240966
0.0306456
0.0018264
0.128697
0.0154296
0.00390255
0.0128934
0.00364846
0.0362257
0.0015739
0.087824
0.019616
0.00454601
0.00555942
0.0266008
0.0573904
0.045993
0.0556544
0.0432624
0.00106178
0.0249118
0.0186453
0.0722835
0.0023556
0.00174839
0.0414646
0.0104686
0.120344
0.0181252
0.0223521
0.0596679
0.0206764
0.0434605
0.00265635
0.00198761
0.0328266
0.0164159
0.0302712
0.0141862
0.0338859
0.111954
0.018812
0.0423286
0.0128415
0.00913916
0.0227885
0.0764922
0.0155299
0.0307563
0.00462261
0.0346447
0.000350275
0.00130391
0.00591423