/*--------------------------------*- C++ -*----------------------------------*\
| =========                 |                                                 |
| \\      /  F ield         | OpenFOAM: The Open Source CFD Toolbox           |
|  \\    /   O peration     | Version:  4.0                                   |
|   \\  /    A nd           | Web:      www.OpenFOAM.org                      |
|    \\/     M anipulation  |                                                 |
\*---------------------------------------------------------------------------*/
FoamFile
{
    version     2.0;
    format      ascii;
    class       volScalarField;
    location    "600";
    object      nuTilda;
}
// * * * * * * * * * * * * * * * * * * * * * * * * * * * * * * * * * * * * * //

dimensions      [0 2 -1 0 0 0 0];

internalField   nonuniform List<scalar> 
14558
(
0.0303074
0.0171338
0.0291978
0.016549
0.0762187
0.019003
0.0103981
0.00720614
0.00364322
0.00988188
0.0271319
0.0109091
0.105206
0.00477008
0.0611118
0.0148292
0.0169686
0.0273834
0.0615551
0.00142228
0.0168041
0.00382398
0.116882
0.0177239
0.0262715
0.113341
0.0201139
0.0154614
0.0111506
0.00307294
0.00186604
0.0248778
0.0776759
0.0145979
0.02574
0.0457515
0.114719
0.00767256
0.0492089
0.00399598
0.0207155
0.00292446
0.0205511
0.00543751
0.019533
0.0191476
0.114885
0.00588669
0.00175817
0.00385754
0.0249335
0.00213402
0.00179061
0.0471804
0.00187346
0.0486959
0.0338735
0.0105384
0.0518579
0.00430949
0.0256358
0.0107665
0.0444849
0.0105091
0.0195718
0.0702529
0.104945
0.00427116
0.00320905
0.0748378
0.00316244
0.0240915
0.0280137
0.0135466
0.00607025
0.0413442
0.00345739
0.0188873
0.0526463
0.0041289
0.0161311
0.0256034
0.00716624
0.00433466
0.0285638
0.0150621
0.0103274
0.00214289
0.0249387
0.027889
0.0145544
0.00262756
0.0352087
0.0272947
0.0163206
0.00125409
0.064318
0.10935
0.109884
0.00727804
0.0118944
0.0195964
0.0785402
0.0196617
0.0304834
0.0944128
0.0100897
0.00345374
0.0755667
0.111871
0.0606991
0.0239393
0.126947
0.120115
0.0194186
0.00787741
0.018308
0.0456438
0.00243457
0.00680218
0.029191
0.0192365
0.0963834
0.044566
0.00931896
0.0363664
0.0222232
0.00440496
0.0277825
0.0146819
0.0171358
0.056834
0.0481726
0.0765253
0.118126
0.00115136
0.00495429
0.027083
0.0177853
0.0174607
0.0511766
0.032725
0.00615173
0.0412816
0.0224833
0.0551676
0.0611665
0.00247101
0.0653476
0.0950399
0.0644334
0.00843128
0.0392756
0.020392
0.00156641
0.118107
0.0157543
0.00214666
0.0706557
0.00617651
0.0214311
0.0244646
0.0227304
0.0605066
0.0243984
0.00197521
0.111406
0.00570625
0.0653948
0.0627359
0.134931
0.00709913
0.00408717
0.000493794
0.003326
0.00415535
0.0310748
0.00252774
0.0934752
0.0200088
0.0553925
0.109357
0.0189176
0.042161
0.0640048
0.000547727
0.0279032
0.0345421
0.00247245
0.0262804
0.000856869
0.0589901
0.00337668
0.105968
0.00236093
0.00491338
0.00197553
0.0728615
0.00340044
0.00250748
0.0526574
0.105925
0.0046332
0.0688706
0.0433448
0.00247891
0.0803027
0.0255693
0.0253172
0.0276841
0.0283529
0.101166
0.111895
0.0143185
0.0690635
0.0980113
0.0566622
0.00279937
0.000830933
0.0031492
0.0187506
0.0420689
0.0285055
0.0300887
0.0849839
0.0256236
0.0105863
0.00216164
0.00370826
0.127804
0.0855631
0.0639029
0.0463455
0.0208304
0.0238419
0.00651397
0.0187841
0.00176102
0.0374061
0.0108231
0.0496548
0.0719197
0.0156398
0.00274151
0.0107196
0.00744541
0.0970756
0.0153194
0.00510647
0.00966851
0.00243808
0.111136
0.102973
0.0319957
0.00235246
0.00634016
0.0637809
0.00515275
0.113522
0.134507
0.135477
0.0367402
0.0167623
0.0357303
0.0140342
0.0176667
0.0144043
0.0495501
0.00262687
0.00676749
0.0416168
0.0676458
0.0093815
0.0022192
0.121987
0.00494881
0.00440632
0.00451062
0.00453274
0.016212
0.0930352
0.0492997
0.110305
0.0420492
0.045586
0.0404859
0.0235185
0.0174239
0.0406788
0.00335396
0.0235668
0.121579
0.0669312
0.00505175
0.00131795
0.0466327
0.00500923
0.0212632
0.0124247
0.0627278
0.00462815
0.0031894
0.00431549
0.00271873
0.0815778
0.0407008
0.0590387
0.110115
0.0605376
0.0401715
0.0289101
0.0334012
0.0295095
0.106629
0.00213465
0.018335
0.0644896
0.0842705
0.0330612
0.0693019
0.00118216
0.0300708
0.00662072
0.000565211
0.00580158
0.037004
0.0220426
0.00264078
0.109661
0.0284176
0.106874
0.00296285
0.000338961
0.0161014
0.00741308
0.0181755
0.0204401
0.0207121
0.0141775
0.0144165
0.00752965
0.0597963
0.0720793
0.100637
0.017611
0.00444509
0.028826
0.00967226
0.0273124
0.00261777
0.0388928
0.00332237
0.00338051
0.0115354
0.00725357
0.0695662
0.0486128
0.0206692
0.0066452
0.00633055
0.120567
0.00223527
0.0678861
0.050623
0.0030082
0.135747
0.0513779
0.0164289
0.00230289
0.00813598
0.0536436
0.0994367
0.0266891
0.0293751
0.0219078
0.0625336
0.0272502
0.0156302
0.0296415
0.0348209
0.0138225
0.031914
0.0587638
0.086659
0.125446
0.0127022
0.0292935
0.0467797
0.00321855
0.0158697
0.0641908
0.0250807
0.0712549
0.00313464
0.0258067
0.0269364
0.055451
0.00452103
0.00815611
0.0910893
0.0050854
0.00480182
0.119475
0.0206319
0.0235674
0.00139952
0.00700354
0.0217994
0.0376451
0.0220571
0.0957052
0.00228672
0.0106272
0.0682754
0.0322455
0.00962086
0.0726896
0.0165491
0.0794971
0.0305331
0.0405731
0.00565325
0.0262073
0.0256741
0.0110144
0.0326628
0.0243729
0.0285608
0.0200686
0.00819158
0.0591926
0.040929
0.0206305
0.0023058
0.0255627
0.0964553
0.069208
0.0708089
0.0727989
0.0524566
0.0316731
0.0130463
0.0034398
0.0219229
0.0084233
0.0719173
0.0993932
0.0927183
0.05768
0.00726828
0.0167173
0.00414074
0.0507403
0.064545
0.0428475
0.0209847
0.0520033
0.0173799
0.00732956
0.0723367
0.0344621
0.0219406
0.040537
0.0281564
0.0248023
0.00129555
0.0679801
0.00360144
0.0944022
0.00266687
0.0307001
0.0072473
0.0352452
0.0245738
0.0701903
0.116422
0.0231353
0.0070685
0.0828427
0.0687776
0.00828328
0.0197478
0.0206925
0.0323495
0.00349806
0.013834
0.000412033
0.00214721
0.023435
0.0268085
0.00259061
0.00315657
0.0343728
0.0106171
0.0608043
0.00457996
0.0580116
0.00501951
0.0416033
0.0140092
0.00203901
0.0127369
0.0151062
0.045625
0.0394319
0.00702946
0.0255394
0.0975787
0.0713266
0.0361546
0.0168132
0.0210486
0.00823247
0.0421179
0.102778
0.0497788
0.0863046
0.0151522
0.0339214
0.0254931
0.132721
0.0239541
0.00460103
0.0452535
0.00176509
0.0142968
0.00435325
0.00474034
0.020917
0.00416746
0.0860548
0.0313766
0.0404672
0.042881
0.0309922
0.00630218
0.0130658
0.0895762
0.0365787
0.000769769
0.00423536
0.00172822
0.012694
0.0189491
0.00272205
0.00576723
0.00746992
0.1037
0.00416591
0.116437
0.0726317
0.00571577
0.00523633
0.0407158
0.024386
0.0164076
0.0530763
0.0176554
0.00219106
0.0880029
0.0141939
0.0667954
0.00646864
0.0670278
0.0146429
0.0149921
0.0338664
0.0505777
0.0278846
0.054752
0.134511
0.00333741
0.0297887
0.0709636
0.0342808
0.0338452
0.0187379
0.0834958
0.037456
0.0185304
0.0701631
0.0890854
0.0126274
0.0279624
0.0505065
0.0883665
0.00923998
0.0153946
0.0124091
0.0904513
0.0385756
0.0220923
0.0102349
0.0211031
0.017812
0.0488788
0.0199835
0.0252854
0.0300131
0.0120978
0.00147816
0.00283434
0.0147411
0.00654746
0.0391933
0.0135626
0.00446433
0.123855
0.0343018
0.10036
0.0181456
0.00277577
0.022468
0.023074
0.0333693
0.0862938
0.0507334
0.024216
0.0146805
0.0039731
0.0323349
0.00291004
0.0952016
0.0906617
0.0670623
0.0590581
0.0499122
0.0303844
0.0116408
0.00102655
0.0539948
0.0274174
0.0141248
0.0597405
0.0599568
0.0204512
0.137376
0.0851476
0.00270885
0.0115644
0.00219966
0.00906114
0.0173417
0.00189142
0.0672803
0.030607
0.025024
0.040273
0.124783
0.0144931
0.087918
0.00765456
0.020771
0.0042869
0.00343015
0.0264466
0.00144527
0.0246666
0.0029125
0.0440966
0.0597308
0.0652612
0.000778457
0.106783
0.0395988
0.0504498
0.0316391
0.134724
0.00349303
0.00283483
0.0646149
0.0107536
0.00853516
0.0915905
0.0462715
0.00708671
0.0242508
0.0166249
0.0431566
0.00201238
0.0489178
0.00512454
0.00253394
0.0649899
0.0941318
0.000100816
0.0168407
0.0116238
0.053532
0.00105194
0.000666713
0.0267843
0.00220694
0.00441477
0.00334941
0.0358911
0.0240156
0.116856
0.0966093
0.00273453
0.0550728
0.0271506
0.000537613
0.0620648
0.0760873
0.00760628
0.0597825
0.0279915
0.0293386
0.0251478
0.0884787
0.0132063
0.0241572
0.0101101
0.00491914
0.0146029
0.0599984
0.0203743
0.0141869
0.0204621
0.00619883
0.00371889
0.0973519
0.0565109
0.0314423
0.0573971
0.00680973
0.0126448
0.0665812
0.0787201
0.00986091
0.00388183
0.0231161
0.00383682
0.0580963
0.00966301
0.0595705
0.0747284
0.00439174
0.00215529
0.0503821
0.0176399
0.00371007
0.0213557
0.0397725
0.0254447
0.0834262
0.0298978
0.0119927
0.00302367
0.0118495
0.0256423
0.0261799
0.00556236
0.0104252
0.00281681
0.0545911
0.0277677
0.0483201
0.0272408
0.0634877
0.00999152
0.0300971
0.0268828
0.00662601
0.00203687
0.0717393
0.0149111
0.0818638
0.0491393
0.0184401
0.0417111
0.00336498
0.0709935
0.0189364
0.0139176
0.0284934
0.0163725
0.00317928
0.117541
0.0600075
0.135227
0.0889266
0.00447943
0.0351202
0.0112421
0.0242922
0.0180586
0.0118419
0.0271623
0.0260068
0.0238144
0.021449
0.00439444
0.12136
0.00482636
0.0906957
0.0205415
0.021801
0.00566691
0.0240296
0.0300664
0.00966329
0.0105845
0.019482
0.0219731
0.01585
0.0104672
0.000286153
0.0284998
0.00343399
0.0351439
0.0149628
0.0412522
0.0192582
0.0256489
0.000383875
0.0217725
0.107637
0.0588641
0.0021971
0.116806
0.00844697
0.0450836
0.0124442
0.0296306
0.024205
0.00483157
0.0229124
0.0113962
0.0424771
0.00476322
0.059192
0.0185789
0.0212107
0.000376861
0.00221876
0.00993988
0.00317421
0.00930332
0.0154007
0.00125345
0.00257583
0.0229476
0.0219193
0.00602347
0.0499203
0.00982796
0.0924019
0.087334
0.00957729
0.0297023
0.00194117
0.0285533
0.00266256
0.0199668
0.000409264
0.0158445
0.0686344
0.024043
0.00216045
0.0661013
0.0252822
0.0774472
0.0056684
0.00617941
0.0048567
0.00857713
0.00954326
0.0654302
0.1025
0.0222867
0.0783783
0.00692624
0.0143133
0.00737467
0.00546274
0.0110347
0.0429328
0.0155457
0.0764388
0.0203668
0.118081
0.0657813
0.00493776
0.00300487
0.0191307
0.126902
0.00436964
0.0165706
0.0193341
0.0774504
0.0146095
0.0197014
0.0363041
0.00557075
0.056366
0.00295735
0.021646
0.0028698
0.0178929
0.00429558
0.0846149
0.0807547
0.0100231
0.00816359
0.116969
0.0732627
0.00238017
0.0199397
0.105465
0.0142053
0.00271076
0.00706381
0.00313801
0.0658408
0.103572
0.00234689
0.0188394
0.00294283
0.00281491
0.00820359
0.0128867
0.0092463
0.0228588
0.00917508
0.00649351
0.0864409
0.0165227
0.0152392
0.0158737
0.0589402
0.00804751
0.0300992
0.0263396
0.0352119
0.0558424
0.122878
0.00548113
0.0383428
0.00300028
0.0307843
0.0726768
0.0462333
0.0358161
0.0274854
0.0301158
0.00220039
0.00228606
0.0289152
0.0218488
0.0561732
0.00208903
0.0160633
0.00230501
0.0125828
0.0356697
0.000452986
0.0260401
0.0321769
0.0541836
0.0424806
0.0230537
0.0279043
0.00510302
0.0964769
0.00456804
0.00357204
0.0549544
0.00225958
0.0194901
0.00278079
0.0178342
0.0212693
0.00230223
0.0474968
0.0243261
0.0748987
0.0068266
0.0642528
0.0179253
0.00645801
0.0218413
0.0191659
0.0255408
0.024516
0.016316
0.0687477
0.113742
0.00485525
0.0544599
0.0680586
0.0273047
0.00567303
0.0607087
0.00520638
0.121541
0.000402629
0.00253928
0.117392
0.0302531
0.0671575
0.0186097
0.0257079
0.0350424
0.0146983
0.0996518
0.0514439
0.0193326
0.0635908
0.105075
0.00156106
0.00616925
0.0590023
0.0700649
0.0543658
0.0240328
0.00862283
0.0853051
0.023973
0.0588806
0.0177189
0.0373344
0.0555014
0.0027637
0.0318778
0.03377
0.0291451
0.0275336
0.0320459
0.113338
0.0200256
0.0138354
0.00430719
0.0106714
0.0626406
0.000556917
0.0243485
0.0209307
0.0155052
0.0312477
0.0601986
0.0118571
0.000948425
0.00854016
0.00532267
0.0249351
0.0511749
0.0376461
0.0574795
0.00637404
0.00870657
0.0136316
0.00624297
0.0508942
0.0762601
0.0487152
0.0122618
0.0174722
0.110883
0.0327234
0.0220992
0.0431575
0.00278751
0.0227556
0.0301656
0.027276
0.130149
0.0996369
0.0313575
0.00139819
0.00962358
0.012946
0.00739239
0.109044
0.00323068
0.0028391
0.0225038
0.0423051
0.0791264
0.00370675
0.0521235
0.00645134
0.0206767
0.0297305
0.0411018
0.0262558
0.00439135
0.0236147
0.0349577
0.0442598
0.0563761
0.00354572
0.102139
0.0939447
0.0203014
0.109023
0.127835
0.0038898
0.0182603
0.0145286
0.0453744
0.0542901
0.0360663
0.00196319
0.0203199
0.0582696
0.0217635
0.00692985
0.0840485
0.00218966
0.0874363
0.0250359
0.0419823
0.0119174
0.0729224
0.0371083
0.0071969
0.119294
0.00102448
0.0167233
0.0109604
0.0104753
0.136132
0.0151126
0.0164268
0.0205931
0.014443
0.015767
0.0253823
0.0863314
0.0514949
0.00825627
0.000885307
0.0541137
0.0328599
0.00749649
0.00812011
0.0848358
0.00495335
0.00724083
0.033794
0.0187535
0.106174
0.00283212
0.0456105
0.000159187
0.0303269
0.0349811
0.00303809
0.00688749
0.00228833
0.0103329
0.0268132
0.0109633
0.0786469
0.000839811
0.0363966
0.1177
0.00273865
0.0283008
0.0479196
0.0646981
0.00425202
0.00332386
0.00147723
0.0347707
0.004273
0.0746423
0.00697932
0.00408956
0.00555452
0.0119783
0.0048404
0.00314918
0.0559953
0.0234088
0.0408248
0.0277249
0.123179
0.0775907
0.133628
0.00343231
0.000610921
0.00670933
0.13493
0.0661939
0.00328031
0.0371586
0.00329918
0.0023384
0.00970687
0.027928
0.0102013
0.0052512
0.0258669
0.0218875
0.00144058
0.00107445
0.0132206
0.00368749
0.0818872
0.00143331
0.0795393
0.0686222
0.0191155
0.0048401
0.0272919
0.00386252
0.0557475
0.0260431
0.0208923
0.0373631
0.0536272
0.00402613
0.0133093
0.00510338
0.00357851
0.0221763
0.0159559
0.0242045
0.111005
0.0109279
0.0182095
0.00352381
0.0624958
0.0669678
0.00316786
0.0111226
0.0566795
0.0145403
0.00416872
0.00703385
0.0464095
0.00838107
0.0179358
0.00328475
0.0456906
0.0376832
0.042354
0.0668801
0.00738297
0.00163615
0.00796457
0.0647009
0.0036025
0.106514
0.00344993
0.00404005
0.00845532
0.0159863
0.00186143
0.00744343
0.00408015
0.0202449
0.00660193
0.00347398
0.0248464
0.0124488
0.0358771
0.0354772
0.00458377
0.0559126
0.0226174
0.0416823
0.00158985
0.121428
0.0342339
0.00120264
0.00858991
0.00363999
0.0403561
0.0604307
0.0190068
0.0318918
0.0826346
0.0246099
0.0315483
0.00731803
0.0560253
0.0142757
0.0169181
0.00662867
0.0892475
0.003863
0.00391513
0.0955045
0.0139382
0.00403041
0.0861759
0.0217953
0.0112801
0.0240074
0.0323606
0.117306
0.00221477
0.0346788
0.00343437
0.0152331
0.0164986
0.0567504
0.00224726
0.00236531
0.0235684
0.017761
0.0487625
0.119313
0.00928841
0.0139266
0.0649547
0.010959
0.00249638
0.00515925
0.00196957
0.00342855
0.038131
0.0300857
0.137738
0.00240018
0.00263243
0.0745338
0.0521675
0.00802595
0.0187286
0.00247309
0.0782063
0.0476233
0.0428104
0.112156
0.0155178
0.0298726
0.0417611
0.0794498
0.0675987
0.00462437
0.000667777
0.00149734
0.0620699
0.0879276
0.00462323
0.106719
0.0765269
0.0183737
0.0940059
0.00163423
0.00838219
0.0464972
0.0651779
0.131714
0.00255272
0.0292932
0.0277511
0.0030767
0.0125652
0.0119245
0.0028934
0.0412451
0.0167083
0.0740445
0.128779
0.024001
0.0380076
0.0464272
0.00446838
0.0220946
0.00782073
0.00811066
0.0158031
0.0061796
0.00556375
0.0162162
0.00342326
0.0374253
0.00250724
0.0825733
0.0651401
0.0112789
0.0455797
0.00552777
0.026382
0.0345093
0.000104322
0.0217082
0.123058
0.0223164
0.020386
0.0265933
0.0331223
0.00721098
0.049968
0.0378501
0.00782275
0.038292
0.00473107
0.029911
0.0748314
0.0714289
0.0986495
0.0804998
0.00777204
0.0231791
0.0320866
0.0190138
0.00665755
0.0134079
0.026151
0.0332441
0.029195
0.031436
0.0299431
0.0781991
0.00336016
0.0183606
0.0346473
0.0358997
0.00675257
0.0666424
0.00457967
0.00445874
0.0285795
0.0527232
0.0159029
0.00456917
0.0129942
0.0145387
0.0120793
0.057059
0.0137788
0.018629
0.00229129
0.00418673
0.0405922
0.000420191
0.0767289
0.00505862
0.0226983
0.0140745
0.0402055
0.134746
0.00122386
0.0561449
0.00654421
0.00614886
0.00479956
0.0670696
0.0234103
0.0531964
0.0273762
0.020479
0.0120352
0.0974101
0.0529408
0.0193325
0.0371983
0.0639181
0.019275
0.0380245
0.0607323
0.0162684
0.131855
0.00493142
0.00198502
0.00345326
0.0113913
0.0498985
0.122944
0.00703941
0.0218336
0.0125983
0.0533114
0.0494824
0.00471855
0.038748
0.0176539
0.0156278
0.00382924
0.00164799
0.0150053
0.0532771
0.0230719
0.00103345
2.14787e-05
0.00223788
0.0158296
0.00324977
0.00290744
0.0302026
0.00042402
0.00849438
0.00066806
0.0331325
0.0885738
0.0673526
0.0254947
0.0494255
0.055052
0.0121121
0.00830233
0.00772023
0.0215177
0.0146035
0.00702051
0.0213022
0.037283
0.0279374
0.0121078
0.0977715
0.0472103
0.0717217
0.0562746
0.00714016
0.00519679
0.0753137
0.0598774
0.0393364
0.000710197
0.0143538
0.0906863
0.00844448
0.0343896
0.00770451
0.0204824
0.0237046
0.0579196
0.00389295
0.00611002
0.00672403
0.0179352
0.0302451
0.00350001
0.00543798
0.00836633
0.00427796
0.00230083
0.0483641
0.00202531
0.0319404
0.0446346
0.0204484
0.0166728
0.00296742
0.0131952
0.00106949
0.0443776
0.0152358
0.0800446
0.0448866
0.0136853
0.0333344
0.05945
0.0521306
0.0183825
0.00541523
0.0162967
0.0530827
0.0110459
0.00236877
0.00441945
0.00367633
0.00994661
0.115804
0.0211589
3.42742e-05
0.00137232
0.00755286
0.0659239
0.0319066
0.00500085
0.000861127
0.00116933
0.018628
0.049758
0.0124664
0.0169591
0.122628
0.0315708
0.00200072
0.0785909
0.000959206
0.00703284
0.124265
0.11752
0.0289821
0.10068
0.0520567
0.0214755
0.0761831
0.0551886
0.0255572
0.0406223
0.0144398
0.02875
0.00533677
0.0034433
0.00229177
0.0117979
0.0285872
0.0090481
0.0480124
0.0454556
0.00261182
0.0356506
0.0488124
0.0574677
0.0032288
0.0960734
0.11581
0.016947
0.0318337
0.0016208
0.0553296
0.00176168
0.00429914
0.0126009
0.0259568
0.00219086
0.0245924
0.0360751
0.103728
0.0105935
0.0402114
0.012184
0.0209325
0.0128317
0.00134825
0.0445582
0.023523
0.0214398
0.0208972
0.0154216
0.112355
0.0447365
0.124583
0.0221706
0.00583212
0.0062907
0.0525011
0.00360183
0.00694059
0.0190076
0.0295546
0.127987
0.00262071
0.0199827
0.0102115
0.0164272
0.00149271
0.0191456
0.00491571
0.00830749
0.0043569
0.112271
0.00487649
0.0346395
0.11295
0.0422963
0.0636065
0.0330813
0.00826106
0.0193236
0.0718524
0.0157273
0.0216019
0.0254351
0.0118382
0.0197133
0.0532861
0.0374915
0.0225459
0.0181049
0.00311332
0.00804808
0.0130777
0.0707237
0.0616937
0.0342257
0.00518309
0.00453364
0.0817926
0.0212717
0.000310204
0.0320076
0.00659257
0.0161151
0.0493584
0.034985
0.00888397
0.0252918
0.00626969
0.0681403
0.0202237
0.114608
0.0564209
0.104786
0.0229319
0.00299647
0.00585573
0.0052435
0.0237931
0.119647
0.0216241
0.00328246
0.064585
0.0253012
0.0230092
0.025236
0.0594431
0.0258494
0.038143
0.0538305
0.0462515
0.00234267
0.00435255
0.0288932
0.00929784
0.010532
0.0194085
0.0485482
0.0848278
0.0280628
0.066334
0.0367865
0.00732712
0.0964649
0.0699163
0.0481486
0.0211979
0.00867022
0.000280128
0.00902438
0.0239608
0.00860253
0.0119076
0.00107695
0.00443126
0.0300421
0.0171102
0.0215284
0.00316079
0.0278934
0.000886678
0.0174003
0.0951418
0.00242819
0.0256614
0.0566626
0.0420295
0.00277265
0.0691547
0.0719419
0.0451116
0.00187754
0.00216406
0.00930926
0.0196076
0.0347832
0.0297375
0.000866551
0.00186494
0.00254009
0.0943497
0.0311386
0.0112383
0.013382
0.00418568
0.0642719
0.0252701
0.0181848
0.0194927
0.0060248
0.00517046
0.0276861
0.0250585
0.0263494
0.0237959
0.136145
0.0012686
0.0375043
0.0609508
0.0532122
0.0271296
0.0281842
0.0759466
0.0263341
0.01914
0.116272
0.0238738
0.0198549
0.00137431
0.0621062
0.0425978
0.0130105
0.00917195
0.0742753
0.0125437
0.116202
0.0590966
0.0542909
0.00284735
0.0805329
0.00359703
0.00584148
0.0712128
0.123001
0.012839
0.0515116
0.0174959
0.0120051
0.000363821
0.00337199
0.00867391
0.000361271
0.00271363
0.0173162
0.0188631
0.0249852
0.00989138
0.0770621
0.0208381
0.0205304
0.0356291
0.0331998
0.0145697
0.109543
0.0228976
0.132618
0.00847955
0.0126502
0.0217256
0.0202273
0.0227476
0.0933603
0.00869296
0.00845517
0.0516788
0.00998042
0.0136204
0.031676
0.00215222
0.0231534
0.00774096
0.00258286
0.00350715
0.00242873
0.0848726
0.0312295
0.0271635
0.00297653
0.0255046
0.0433492
0.0372641
0.00521023
0.00201337
0.0160681
0.0474351
0.00172824
0.00378604
0.00427689
0.0699728
0.0276835
0.0523936
0.0137804
0.0198507
0.00219962
0.0785441
0.00339988
0.0199214
0.00466762
0.0173537
0.0849914
0.0163478
0.00912794
0.12368
0.00422847
0.137632
0.00245503
0.0616404
0.0198477
0.0858084
0.000478691
0.0352268
0.00275498
0.115593
0.0201639
0.00513512
0.0209275
0.00977106
0.00276596
0.0417719
0.0485663
0.0138339
0.0154411
0.0108487
0.00293272
0.052572
0.0123688
0.00296781
0.00283787
0.0336581
0.00395965
0.0351555
0.00235156
0.0129717
0.0437248
0.00444842
0.0277936
0.13215
0.0437125
0.115054
0.00957639
0.0151233
0.0220275
0.0029142
0.0387081
0.027064
0.106182
0.0107483
0.107588
0.0960369
0.00405744
0.0578276
0.0270365
0.0647375
0.000766411
0.00620195
0.00349485
0.00355279
0.00949723
0.00341983
0.12259
0.0700207
0.0615135
0.0154729
0.01224
0.0239462
0.0564748
0.0230316
0.00364694
0.0411119
0.00775622
0.000737157
0.0246422
0.00447529
0.0200886
0.00919384
0.0703234
0.0240078
0.00353498
0.0808675
0.00261493
0.0951886
0.00720312
0.00371869
0.0603028
0.00215502
0.0218717
0.0166844
0.0205889
0.0497345
0.0320149
0.0607752
0.0241292
0.0457043
0.04207
0.0558389
0.0405328
0.000704782
0.0293305
0.0624176
0.124752
0.00648681
0.0144084
0.00902954
0.129605
0.0225408
0.0112519
0.0203073
0.00868199
0.0044301
0.0224159
0.105549
0.135831
0.0345798
0.107883
0.0888307
0.0406032
0.00250526
0.00487772
0.00240647
0.0465702
0.0327002
0.0194895
0.0488268
0.0117614
0.101696
0.0496261
0.0178306
0.000733513
0.00562928
0.0112996
0.0125364
0.0200823
0.0169349
0.0362435
0.0629449
0.0334141
0.0137676
0.0713988
0.025084
0.124642
0.00638055
0.0724111
0.00548523
0.0128057
0.00577936
0.0648947
0.123572
0.0217952
0.110522
0.0237573
0.00310277
0.097912
0.00959404
0.0210707
0.0018828
0.0144749
0.0010762
0.0331967
0.0201759
0.115335
0.00671491
0.0626521
0.0657634
0.00976397
0.0170388
0.0876155
0.0383917
0.00889201
0.0250445
0.110026
0.04305
0.0105846
0.0149567
0.0113469
0.0541722
0.0279205
0.0363603
0.00292108
0.00630194
0.0326521
0.0308819
0.00160122
0.0124875
0.0089958
0.00200147
0.0353974
0.0050679
0.0118311
0.0870718
0.0166025
0.0484168
0.0110366
0.119574
0.0331371
0.138928
0.00526814
0.0275695
0.0222257
0.0323524
0.0217637
0.113622
0.0721965
0.0184476
0.0497424
0.0502316
0.00290662
0.0235308
0.0120147
0.0214902
0.00601337
0.039442
0.0221134
0.0220985
0.00152924
0.0587885
0.035263
0.0463724
0.0132878
0.0509761
0.0316176
0.0304308
6.01861e-05
0.0672787
0.0884421
0.0250807
0.0148007
0.00647323
0.0260658
0.119392
0.0250651
0.00118278
0.00525903
0.0371153
0.00494179
0.00957205
0.00191991
0.0386623
0.00128041
0.0482574
0.041975
0.0205013
0.0041703
0.0121177
0.0108625
0.00287083
0.0249839
0.0448058
0.0643446
0.0265615
0.0202398
0.115706
0.0152165
0.0154102
0.00462132
0.0253743
0.0733127
0.0257759
0.019662
0.0211027
0.0447006
0.0297281
0.0150522
0.094644
0.00504469
0.00108761
0.00880247
0.00310236
0.00326019
0.0161776
0.0144023
0.00697997
0.0400891
0.00279626
0.00960501
0.015186
0.0156213
0.0116969
0.0595481
0.0170359
0.0271199
0.00901746
0.0399939
0.0260305
0.0236765
0.0222996
0.0819723
0.111362
0.0489601
0.00404361
0.0670692
0.0217558
0.00104309
0.00467238
0.118193
0.0295301
0.0247992
0.0630237
0.0736018
0.0198691
0.0183418
0.00371627
0.0810678
0.042311
0.0400283
0.0169474
0.00106137
0.00263645
0.0110843
0.0311899
0.00275924
0.0274991
0.0743516
0.0129328
0.0759733
0.0225445
0.0280059
0.127951
0.00132834
0.117109
0.0814301
0.0657761
0.0154968
0.00769999
0.00822421
0.00142465
0.00349493
0.0497578
0.00225764
0.041881
0.0403763
0.0347041
0.00335786
0.000716058
0.0597228
0.0310354
0.00469703
0.0287635
0.00578717
0.0589739
0.0115719
0.0265733
0.0083391
0.00252295
0.0242525
0.0187109
0.0667146
0.00728601
0.0210821
0.0802997
0.00877243
0.0401669
0.00362801
0.00875584
0.0210876
0.0150819
0.0174535
0.0176595
0.0162874
0.00415323
0.0210534
0.0579004
0.00105851
0.0312201
0.00694907
0.0505561
0.00610789
0.00149441
0.00951059
0.0556919
0.0644139
0.00218659
0.0140174
0.116084
0.00276267
0.0101015
0.00112968
0.092053
0.00363274
0.0054993
0.019758
0.00985199
0.00400553
0.0937719
0.0313468
0.0143263
0.0607517
0.0939264
0.0784004
0.00455866
0.00869193
0.0220686
0.022891
0.00475244
0.00711775
0.00776316
0.054204
0.00116661
0.0630308
0.00346529
0.0224947
0.0351
0.00333542
0.0115902
0.00194794
0.0628654
0.00462547
0.13768
0.00503237
0.0704515
0.00858601
0.0628277
0.00460024
0.00597266
0.00233787
0.00838365
0.00709709
0.0597297
0.0101538
0.0321961
0.0224833
0.015646
0.0185811
0.0131624
0.0313346
0.00241286
0.0306081
0.000906258
0.0644495
0.0554702
0.00580469
0.0271278
0.0053093
0.0270221
0.0160221
0.0332956
0.00230879
0.0110767
0.0087126
0.0225316
0.0153865
0.0227082
0.00245804
0.12765
0.0345212
0.0432327
0.0112193
0.0173281
0.00425928
0.024622
0.0389173
0.00509898
0.00316735
0.0143462
0.0984118
0.0260102
0.0745044
0.0134748
0.0555799
0.00243075
0.069836
0.0316636
0.041146
0.1295
0.0269446
0.0184959
0.0782636
0.00202591
0.0701253
0.0478565
0.00787312
0.0208172
0.0393442
0.0274514
0.0946232
0.0013613
0.000849183
0.0153391
0.112841
0.0123104
0.00145121
0.133501
0.00169695
0.113847
0.0285903
0.0737239
0.0236316
0.0538579
0.0314627
0.0207439
0.0654438
0.051767
0.0981105
0.0187066
0.0205195
0.0586737
0.138302
0.0803735
0.00626584
0.0593245
0.0957197
0.0124365
0.0948183
0.000417708
0.0139856
0.0179341
0.0221628
0.0498014
0.0587504
0.00802164
0.0123002
0.0735721
0.0610669
0.0123903
0.000147132
0.012248
0.0625964
0.00202016
0.019008
0.0435781
0.111064
0.0333147
0.0169853
0.00458941
0.0443719
0.0509414
0.094793
0.00124693
0.00993308
0.00709168
0.0299168
0.000724729
0.086627
0.0253464
0.00355483
0.101346
0.0192407
0.00276307
0.0199896
0.00341605
0.0194452
0.040863
0.000955774
0.012781
0.0501865
0.0029392
0.0187755
0.0210417
0.00630719
0.00649546
0.0248634
0.0651599
0.0380403
0.0451382
0.00759269
0.00368465
0.011163
0.0921196
0.0486405
0.0171411
0.0757142
0.00334432
0.0106848
0.0164334
0.0175841
0.0138719
0.00255102
0.00328612
0.0823877
0.0867089
0.000951058
0.0489166
0.000756425
0.0210696
0.00633009
0.0315925
0.0749885
0.0232036
0.0133036
0.0327592
0.0915523
0.0214368
0.0348701
0.0679737
0.0937446
0.0134341
0.0141027
0.0228467
0.0257692
0.00880637
0.00587904
0.0221751
0.0265337
0.0189354
0.129317
0.00290262
0.0193158
0.0516892
0.0121611
0.0232622
0.0596371
0.0248741
0.0895157
0.00644349
0.0364841
0.0142423
0.0260446
0.0102661
0.00950148
0.017352
0.0505477
0.0466185
0.00738694
0.0649792
0.0928268
0.0360052
0.00214352
0.114111
0.0715997
0.0198043
0.0143136
0.00954605
0.00230322
0.00136582
0.048729
0.063976
0.105387
0.00885303
0.040662
0.0198985
0.0220525
0.0908162
0.00626498
0.0108478
0.0212445
0.0177696
0.0346576
0.00331213
0.0303915
0.0282547
0.00472217
0.00748707
0.0252299
0.000749982
0.0475502
0.00225255
3.63731e-05
0.0375103
0.00412965
0.0623104
0.0182906
0.00396843
0.0288537
0.0142314
0.00172437
0.0577641
0.0693396
0.0132294
0.126016
0.0668816
0.0624739
0.01263
0.0303661
0.00281109
0.00274994
0.00253442
0.0253379
0.000122541
0.0274231
0.00421558
0.0139379
0.0667953
0.0032402
0.024831
0.0412312
0.0243658
0.0221384
0.034388
0.111884
0.00356201
0.0216944
0.00945263
0.0314885
0.0303747
0.0336376
0.0215529
0.00317132
0.0827484
0.0280604
0.0115749
0.117333
0.0181423
0.00606279
0.0396997
0.00320657
0.0183451
0.029351
0.015091
0.0264598
0.0318931
0.0630051
0.00998884
0.0604838
0.0123418
0.0224001
0.0105772
0.00715552
0.0165954
0.00124225
0.0810949
0.00450071
0.00320404
0.00758147
0.0856471
0.0298958
0.0132819
0.00478827
0.0578707
0.00327715
0.0329886
0.0291199
0.00697703
0.0294439
0.0158724
0.0256035
0.0244387
0.0234116
0.0121991
0.0386954
0.00185821
0.00940329
0.017287
0.0289515
0.0367392
0.00281647
0.0192824
0.00299955
0.0346586
0.0383614
9.77572e-05
0.0339082
0.0160343
0.000556797
0.0510616
0.00424834
0.00745753
0.0387251
0.00187858
0.0582006
0.00688365
0.0408516
0.0210589
0.0518507
0.00940666
0.0011614
0.00821095
0.0936343
0.0216554
0.0556802
0.0203297
0.00406831
0.00747263
0.0950775
0.014078
0.00911206
0.0257248
0.0241796
0.0237993
0.00691114
0.00238064
0.0384829
0.135704
0.00514222
0.00722907
0.0583217
0.0237164
0.00480778
0.0776152
0.0365032
0.00784382
0.0282034
0.0331661
0.0470824
0.0119231
0.0222174
0.017398
0.000856864
0.0562115
0.00688456
0.0127133
0.00792438
0.0406666
0.0541486
0.00272877
0.00249239
0.0242449
0.0182277
0.0194561
0.0258782
0.00349961
0.0200826
0.0230808
0.00464062
0.126183
0.00539017
0.0116515
0.0366609
0.0173395
0.00482294
0.096285
0.000551074
0.0220905
0.0208535
0.0045315
0.0285125
0.0360249
0.0424627
0.0567778
0.00525131
0.017343
0.0558753
0.0317416
0.00338774
0.035416
0.00940126
0.0844215
0.037105
0.0177558
0.123425
0.00632
0.0238464
0.0270413
0.136338
0.041541
0.0240794
0.118212
0.0306001
0.0171759
0.000696466
0.118984
0.0205912
0.114813
8.333e-05
0.116687
0.00371949
0.0043996
0.00431276
0.00408548
0.0532308
0.0226058
0.00921955
0.0214681
0.00138048
0.00911324
0.0396607
0.0131661
0.0182231
0.0150918
0.00303386
0.0628465
0.114883
0.0512186
0.0239365
0.115613
0.0186516
0.0176003
0.0186361
0.018167
0.00668423
0.102564
0.0375265
0.00771035
0.00480735
0.0166726
0.0255162
0.00773668
0.0839547
0.0249812
0.0717804
0.112164
0.011963
0.038519
0.0223231
0.0605131
0.027977
0.00744207
0.0219248
0.00995061
0.00104928
0.0172904
0.0603932
0.0596703
0.00628504
0.00418836
0.0219038
0.0273237
0.0701611
0.0188888
0.0285033
0.0208555
0.0948673
0.00349997
0.00482417
0.0239748
0.0161558
0.0141792
0.108923
0.00403026
0.0765911
0.0940496
0.00458561
0.0980004
0.0114735
0.0531818
0.0239189
0.00227619
0.0673533
0.0297665
0.0186909
0.0569377
0.0127849
0.0113941
0.0018427
0.0677779
0.0144202
0.0156895
0.0666137
0.0720656
0.0380464
0.107799
0.0273712
0.0198746
0.00217693
0.0285115
0.114802
0.00159488
0.0594897
0.00715266
0.000987396
0.00380919
0.014168
0.00264896
0.0240966
0.0306456
0.00182676
0.128697
0.0154296
0.00390262
0.0128934
0.00364855
0.0362257
0.00157439
0.087824
0.019616
0.00454607
0.00555946
0.0266009
0.0573904
0.045993
0.0556544
0.0432624
0.00106285
0.0249118
0.0186453
0.0722835
0.00235581
0.00174878
0.0414646
0.0104686
0.120344
0.0181252
0.0223521
0.0596679
0.0206764
0.0434605
0.00265652
0.00198791
0.0328266
0.0164159
0.0302712
0.0141862
0.0338859
0.111954
0.018812
0.0423286
0.0128415
0.00913918
0.0227885
0.0764922
0.0155299
0.0307563
0.00462267
0.0346447
0.000359395
0.00130462