/*--------------------------------*- C++ -*----------------------------------*\
| =========                 |                                                 |
| \\      /  F ield         | OpenFOAM: The Open Source CFD Toolbox           |
|  \\    /   O peration     | Version:  4.0                                   |
|   \\  /    A nd           | Web:      www.OpenFOAM.org                      |
|    \\/     M anipulation  |                                                 |
\*---------------------------------------------------------------------------*/
FoamFile
{
    version     2.0;
    format      ascii;
    class       volScalarField;
    location    "600";
    object      p;
}
// * * * * * * * * * * * * * * * * * * * * * * * * * * * * * * * * * * * * * //

dimensions      [0 2 -2 0 0 0 0];

internalField   nonuniform List<scalar> 
14558
(
-1.47356
15.8739
-1.74718
15.8108
38.451
17.8283
2.21677
5.07058
29.8771
4.56211
-26.7197
5.14659
21.0786
28.1852
-0.326498
-87.8389
-47.5022
13.8435
-0.412255
42.6995
10.2222
28.5773
11.4567
9.74757
-25.8364
13.7486
-1.3837
-48.5073
4.12632
29.4658
37.865
10.883
36.8213
7.10898
-7.87358
-2.32834
11.0905
4.46446
6.73605
17.1687
-1.03939
31.4421
7.65893
27.1744
17.7247
18.2366
13.795
17.4265
40.8724
27.6039
10.3289
29.0359
40.6738
-0.310697
40.4481
5.02626
7.50462
0.988752
4.09995
26.9617
8.1347
10.5769
0.0550426
3.84589
7.5069
22.6691
21.2802
27.1277
34.4291
23.0522
35.4211
8.57508
13.7014
13.5202
50.0632
-6.00534
33.4499
18.4062
4.49049
27.2569
-88.4835
-8.95783
18.3785
17.2766
10.4725
7.03614
10.2785
27.8771
6.11868
13.7632
-96.1504
35.9986
6.4026
13.7634
5.24317
42.8584
24.649
11.2354
20.0513
14.113
-12.5143
-0.385636
35.4137
-77.3258
16.8597
25.6808
-7.76335
31.0135
38.0863
19.2098
-0.726778
-4.42908
16.8412
17.3002
-0.225933
12.0651
4.08277
8.84168
38.1636
15.0476
-99.0602
-8.60423
24.4333
-0.529777
-153.242
-0.321571
-2.46926
24.9789
-27.7771
18.2396
7.80622
57.5993
4.68103
36.5338
18.0363
46.1517
-20.3335
12.4186
2.03323
-4.70171
-46.5693
8.21732
16.6425
2.36542
-2.64315
-9.23247
17.6773
37.807
31.5362
25.565
2.61843
25.285
8.55203
17.6816
42.0899
17.6756
-8.78454
38.0627
18.7796
-1.20066
0.773353
-3.44734
7.79476
16.974
-10.2746
40.269
16.9461
26.7358
34.1622
24.4929
10.281
12.8657
31.1508
32.0172
31.056
22.641
1.22306
37.6502
24.6832
6.2322
-9.46707
18.2644
-0.513371
45.1606
49.6844
47.6427
10.7647
12.3975
39.3809
13.6828
45.9161
-1.17188
20.5757
21.1324
25.9349
-9.59689
37.4622
41.4197
32.9579
36.4709
-0.233106
18.4044
-45.281
4.12332
-4.60706
30.9585
22.2069
-5.22898
11.2613
-5.98592
-40.5032
19.1233
18.665
7.19462
-1.95233
20.9125
-5.26291
36.103
46.7843
34.0241
15.0754
-4.95604
-27.5644
17.0088
22.6656
17.4549
9.56637
38.9873
-47.6634
16.8047
19.5879
5.58238
5.70838
-50.4382
8.46692
27.3401
-4.80418
41.7331
1.69165
-117.47
3.16591
5.58425
-5.10282
32.0943
9.84611
12.7274
9.85401
-30.2612
-57.3485
20.9389
36.1455
19.5223
18.4608
7.09657
31.2507
27.2787
32.8643
-10.0554
18.8962
16.3923
15.7496
2.60928
-31.0376
4.893
9.18172
-36.3881
4.09203
3.88139
37.197
14.5316
-28.2183
18.812
23.3333
-1.48106
17.475
5.26525
24.6818
23.4667
-13.6302
145.598
24.2422
-15.1478
17.9369
33.5172
-16.4478
-29.5404
-12.0704
46.6612
2.86184
27.1716
-10.3858
17.6173
46.4125
22.3747
41.5943
7.17579
22.8258
-43.7346
8.72752
-0.488428
32.6265
28.1229
30.0824
27.1544
7.04477
-32.1872
54.8798
18.7318
37.5613
-60.1454
14.2882
-56.9702
-18.1907
9.96562
36.6935
0.406174
7.60636
7.36906
5.91593
18.9345
42.2895
8.02335
27.0792
44.5649
-3.49832
-57.1361
4.51539
34.9155
17.0439
-47.8265
9.99423
20.7168
45.7211
-34.6662
5.79896
4.03886
-0.145041
4.6911
-16.2462
4.3054
24.5345
-0.197307
41.5013
19.0969
2.25011
14.4577
6.81533
-93.7868
7.87827
36.6696
1.99865
32.6316
33.4045
-35.1158
-17.7731
20.0699
-57.9722
-0.721247
4.62725
27.7207
17.6158
31.9547
8.44129
3.26007
32.3595
15.5652
4.11058
5.2363
37.5671
-2.98618
6.50475
9.92874
13.6359
12.5337
-76.4562
16.9797
0.324772
18.4093
-35.5534
5.10349
7.29573
6.59502
29.1523
18.7063
17.0062
3.926
-2.248
4.30895
32.1147
-90.3279
48.7927
-5.57875
8.38937
-67.9714
7.46565
12.4793
-0.200301
-10.9872
-174.314
25.9825
16.7678
21.4939
17.5717
16.787
-1.04565
10.5292
-15.503
-0.0532233
-60.7696
-122.584
24.7875
36.2575
19.6969
18.6456
9.73866
-151.679
31.4474
18.7303
8.59572
-75.5451
7.41528
28.3429
61.5572
9.93416
19.779
8.52533
131.878
0.630125
-15.9429
2.15651
54.1379
0.627986
13.4186
36.9518
-5.47929
20.761
28.6756
19.4168
3.96732
-44.4342
-49.9901
21.0617
25.7007
-14.428
2.49085
4.92826
17.5449
19.4387
19.5625
18.0006
-111.062
21.3754
3.8026
7.88495
-28.9674
-0.328734
2.80743
18.2554
17.3511
19.7692
11.4776
0.700888
3.63992
-4.40171
5.84976
45.3618
43.4854
28.8387
9.75152
21.3583
-74.9135
14.8654
4.4951
-2.16018
22.283
10.6635
-0.00226248
25.9712
7.13633
35.8908
2.60193
-0.879878
2.30004
63.655
26.0429
10.5806
48.665
41.826
-1.01765
9.91074
39.1228
24.6628
-91.8214
14.9068
55.5004
29.3552
14.02
27.3373
0.888257
20.929
38.2332
8.03941
20.2082
6.13237
-5.93245
14.5323
10.6439
10.2192
39.7664
-56.484
-1.05929
9.21483
-6.27697
-5.63664
21.9972
2.28055
18.1999
6.6149
44.3947
10.8218
17.1924
-26.9208
-24.2934
-2.02645
41.3729
18.2364
25.087
3.91819
-0.870904
13.4738
25.6081
-77.7903
1.42836
-4.52006
-94.2479
15.5517
7.9457
14.9024
23.7886
46.264
31.3215
-62.4364
-46.2073
-0.703161
36.3336
19.1363
-1.43335
19.1176
26.0193
18.3867
32.3651
17.8438
19.352
-7.20245
-118.303
-35.1764
57.2797
-1.04027
38.7835
8.60971
-35.3426
-1.16266
27.6749
32.3682
6.73442
7.59617
5.62636
8.59372
-42.5323
54.8434
9.45305
21.5825
14.2012
19.3693
-53.6658
111.222
-106.711
12.152
-43.85
-42.9449
19.5657
10.0208
25.6424
2.83406
19.6347
13.8147
-1.61798
-12.799
13.6382
18.5929
4.17826
-8.62039
12.5618
-8.00876
6.66078
-46.1085
6.59837
7.78947
9.29351
8.74776
37.1253
29.6648
-138.593
27.702
-58.4484
6.19619
11.2425
17.3328
-10.0101
18.6017
0.562893
35.8738
6.41838
4.92414
10.3332
30.2071
2.47115
10.7345
14.7501
14.8968
-0.923381
33.0945
24.924
14.053
18.1079
0.648346
-54.0795
-71.8872
-1.58204
45.2249
-1.28671
-13.1586
8.61382
12.8938
0.509955
6.99344
10.6787
7.98422
29.0932
-45.8692
41.4147
11.8138
-0.904262
41.1911
18.7106
9.37982
-10.9564
-51.3115
17.1743
-34.151
29.6941
14.4913
8.36355
0.473421
32.7973
10.23
-19.0077
10.5281
35.1664
45.1093
18.3271
49.6361
46.4873
20.2863
-49.1646
-1.09889
-42.2596
14.5913
21.4061
34.2926
16.7254
23.1237
-54.9273
14.0178
5.99142
-164.586
-4.87055
6.42562
9.12257
37.3286
3.74414
2.30223
36.9516
18.7172
20.7562
46.0593
12.8413
9.62095
7.25527
20.1065
45.4104
-58.5115
327.1
29.2669
-13.0798
-89.9528
11.0212
11.9131
24.799
37.1154
35.8352
-11.8312
47.8678
49.9082
34.872
22.8953
-2.52336
9.13284
-38.5663
-3.55757
7.30114
8.24577
11.0319
-5.45266
-56.4277
20.5461
17.7178
0.551657
5.23655
77.2788
-46.7026
-0.513078
18.6172
0.760364
-0.749343
17.5726
10.7211
-110.939
-0.355282
6.47214
-168.425
31.2761
-8.44096
32.327
11.3124
-19.2714
26.4541
22.5633
24.1494
38.8819
1.75946
4.2703
30.4088
-105.384
-81.8767
9.51613
19.384
-42.9772
-19.8316
35.2033
12.1855
-20.4957
16.6451
4.89777
7.3769
35.3511
58.1909
-23.6605
75.565
-55.0628
49.3088
23.7273
-34.9797
14.1867
6.33999
39.3705
31.7321
6.83523
8.34015
3.23947
0.504328
17.4949
-1.94829
38.8324
-2.55514
10.3352
10.4742
18.1157
18.4275
18.1066
13.7603
14.8421
23.3452
18.7714
6.8717
-47.238
134.72
5.90165
6.46577
0.48348
13.9455
3.44745
1.57636
30.0045
17.7432
-0.874986
25.3374
-5.0847
-2.16777
28.2918
-0.134407
-29.3368
24.248
14.9018
18.402
-80.5729
-10.0107
23.1918
45.8794
-25.5425
3.14599
-54.9137
52.0743
7.46252
-1.50857
-17.6777
46.9468
-53.2625
20.1046
12.4918
37.1769
10.4116
-13.0968
6.03896
-4.2487
-37.3479
4.23693
27.8895
-8.9079
14.7978
-4.71751
-20.9345
13.5345
12.3884
16.5576
40.0855
35.5579
16.3904
28.3044
4.16019
19.6224
43.9306
37.8657
-0.311868
-0.400302
16.8337
3.17148
8.46949
18.6105
9.50986
19.2079
10.4816
-44.361
3.85781
18.3387
-98.6995
40.9756
-11.1656
31.4628
12.3416
37.4243
17.313
9.2115
24.0829
195.087
-5.59193
30.1572
-9.7688
-97.8527
17.3192
19.3177
4.61098
18.2453
-47.2179
-130.94
26.2731
19.0548
-1.88615
-73.3465
-6.06274
5.11749
-13.5283
16.1539
50.1861
-20.1644
28.2639
8.36741
16.9764
-0.67632
-121.735
-0.557504
5.39094
15.1891
14.9512
0.573258
20.281
-26.7206
35.3571
16.7664
37.9637
-12.7129
-56.8148
6.65602
22.3902
10.2445
7.68891
18.0725
35.7285
31.9977
-32.1126
19.9051
6.06874
36.4822
-52.1744
35.0766
-3.57645
19.3996
30.7717
-2.30422
36.4795
26.1731
13.4472
-19.6346
-9.30698
-0.164856
24.5231
21.2243
30.8593
-105.879
8.21813
15.2275
0.357552
12.6682
-38.8825
93.3124
-44.0444
54.9548
17.5117
-27.7677
-53.9901
24.198
8.85001
36.8426
-1.87209
-0.446982
-14.378
8.57806
38.315
36.1946
-0.408813
15.4793
-0.589047
-92.7745
5.79658
39.2294
5.89819
-55.3642
48.0256
-46.5772
-53.6784
0.0939866
14.3211
0.179321
-22.5898
22.1669
9.33267
17.2113
33.2992
14.0069
26.9658
-33.5598
35.9071
16.8728
8.9212
-230.141
4.79061
-11.1099
34.7084
14.5113
48.228
16.7227
-3.33895
0.219541
-1.4412
-5.07434
-2.08152
-9.03727
18.5983
18.3448
-49.2849
56.7224
-2.24095
-14.9826
-19.6465
51.6834
21.2688
16.9547
43.6152
34.6918
17.2689
-30.7959
-1.44397
18.4176
-5.75684
-88.4971
8.86237
9.9039
-39.7675
5.89108
7.23193
19.8488
40.6571
17.8075
29.2492
0.0721228
56.9018
12.0624
4.52068
29.6738
-28.698
4.88854
-1.10476
-77.0859
13.4346
36.2482
5.82904
14.8612
10.1197
10.346
-47.061
18.7212
-9.81637
2.53012
22.5574
8.63574
3.35638
13.4929
9.2396
3.11099
-25.2717
11.4899
50.4647
23.6979
45.0202
-122.569
21.3451
10.0932
8.41542
-79.619
11.0025
15.0327
19.859
-3.27481
17.9887
5.22242
36.845
7.16621
4.09213
15.0856
19.5458
5.55093
6.44165
2.16299
38.1046
7.71234
11.9944
143.813
10.3392
19.5617
2.60614
44.0515
15.5391
13.6733
-160.648
18.4485
33.9532
33.1322
7.99108
-69.4787
34.3522
21.0406
2.9419
27.1708
93.2517
1.07071
-0.762738
-29.9702
24.9421
1.58908
-7.35125
17.6778
-10.255
-14.0259
21.9525
26.0217
-1.05008
19.2068
17.3834
23.0414
9.94753
-9.59901
-0.502475
1.69642
79.8258
40.6176
2.42756
2.84065
148.59
-19.458
8.59704
-120.505
28.1355
-10.5074
-35.632
-38.2159
20.1356
2.20084
5.27385
10.9243
43.6868
-1.41913
9.68458
-2.20897
16.273
16.574
17.0568
2.55984
-33.2364
19.7433
11.1765
22.6608
1.88448
-37.5272
45.4346
12.5202
11.8559
13.946
6.08969
29.8022
15.2145
13.9278
-53.375
-4.77553
20.5612
20.6734
65.4278
40.0681
0.437241
8.88142
29.2984
-4.50096
38.6155
57.3729
14.1387
-12.2066
7.55502
44.6334
-87.1799
18.1272
34.2125
5.05355
0.236356
16.7097
14.6928
25.0641
40.6694
15.3461
20.2009
19.9861
25.0117
30.6837
-3.52394
3.8065
21.8452
-199.094
-3.44352
7.25036
45.7082
11.2328
17.386
7.17782
17.4015
14.8638
48.6049
15.8147
17.1235
-4.70545
19.7553
7.23988
26.5512
31.0827
6.9779
9.18708
7.54177
21.5806
-10.6033
-0.316062
38.9228
45.4635
3.2016
30.0027
22.1674
40.2709
36.2247
35.2594
2.94361
-10.4041
-12.6795
-54.466
49.3613
-6.90717
1.47018
-56.949
13.5962
26.3848
7.76019
22.5264
27.5466
-32.2033
12.5641
-29.7266
19.1817
2.47449
13.0116
32.3264
-5.53231
5.69286
33.6887
7.63006
-24.1859
5.4885
29.5956
5.61567
79.1962
12.9291
0.990526
26.2824
-13.0055
-59.684
2.26496
-4.93365
6.68959
39.7505
-28.1455
-0.0136597
13.4759
20.5129
29.1708
-9.33644
25.2525
-133.166
40.3197
25.8388
25.9699
12.4322
26.7909
11.9821
144.079
18.897
-78.8905
92.6675
-8.81
56.2027
10.3484
0.407219
-11.514
12.477
-57.1404
44.0544
14.9859
12.1068
14.6466
-4.83291
7.45311
3.36272
7.88149
9.899
9.16671
-2.70439
50.1997
-3.13087
5.22212
-0.688378
28.1934
29.8685
30.4218
20.8644
9.07212
31.6013
24.9536
-0.533932
20.7125
13.0707
2.70318
18.1757
26.2224
-74.2714
34.2264
4.80485
2.86468
18.0539
-151.71
37.8978
13.675
9.02889
0.862457
17.9415
15.1693
5.18269
17.962
8.69219
20.4768
27.6212
39.7847
33.8011
6.12498
11.6945
16.4147
25.8031
33.9494
36.6291
15.9375
10.2656
3.1468
34.8398
37.0825
-14.4584
-3.86458
18.9587
19.7151
-1.66502
7.24327
24.6888
18.2276
254.801
46.7925
42.9026
37.3192
23.4966
25.0404
20.9866
3.19174
3.30813
25.8142
41.7113
11.6837
12.7347
6.56395
14.7519
32.6727
-66.3855
-25.9628
20.1015
16.9936
8.692
-115.904
3.22651
2.88649
41.1223
17.6787
9.12035
-6.82184
-23.7615
160.807
-90.2604
14.5823
13.6142
17.2443
2.18923
-50.9576
19.0928
31.843
10.8502
24.2567
11.1254
42.0976
6.95438
0.1216
-5.0149
11.7084
65.0885
46.7775
15.4568
17.6396
3.81616
2.82756
11.399
-4.64287
14.7462
-44.1784
21.1789
23.5999
-85.3567
15.152
12.5069
37.0609
19.6495
19.6944
5.56148
24.5832
3.43916
-52.4185
3.5489
14.4493
0.567129
-8.00841
-1.64872
-32.3376
9.65272
6.62022
31.1511
15.3365
-57.8357
7.65959
3.83444
-45.5369
43.2355
-48.6948
13.8812
-53.9064
59.7925
10.9869
-117.725
9.09477
19.7629
21.278
-19.1613
0.470288
7.0682
40.0665
31.3311
2.15885
46.9374
5.81734
20.7054
7.15076
4.6508
4.74081
16.7945
43.2534
2.09967
1.6841
14.6241
16.6108
0.21778
-0.475142
-35.0513
11.0826
16.1246
-39.1925
22.4578
17.4509
18.0041
-71.052
6.96326
-6.28374
-56.7378
16.7181
-1.21028
14.9498
25.0035
27.8978
32.7751
9.26618
-47.6389
11.2632
9.41773
-0.854753
2.97989
1.98412
-32.2179
-4.77433
-61.1434
-49.69
-23.3632
27.3478
40.1098
9.6693
-11.5042
7.11005
45.9891
45.5591
40.8845
-127.613
15.0325
33.0775
6.88404
49.6021
-4.32474
47.6361
-53.396
22.1461
32.7046
-5.4672
8.15852
60.299
50.1165
11.8162
-46.0694
8.27177
186.279
22.9206
1.85926
-82.0861
-19.2994
18.2907
24.6565
58.774
8.7036
33.3741
-9.38102
17.8989
6.15592
0.499951
2.75617
44.8998
1.62436
11.2163
4.31057
4.67169
-4.18774
82.2401
-0.164748
52.9062
26.6069
27.8835
-6.94776
83.765
7.51789
29.8633
10.881
13.1332
26.2349
35.0749
-20.6967
41.6515
10.3916
0.755853
0.752489
15.0604
-45.7531
158.025
39.0212
5.63194
-20.5226
22.8608
-69.0518
7.3399
9.36624
19.7984
15.0898
-8.55909
7.56562
19.0599
-3.67855
8.56758
26.0951
25.1773
22.4165
23.9463
13.37
-0.0169324
46.7788
43.9974
-2.01415
40.9285
0.163401
29.0361
45.1534
42.4484
17.8098
0.507146
16.3394
-9.98028
16.5856
6.67074
29.6234
31.9467
42.9038
12.1105
17.2762
11.9774
7.73407
23.1826
43.182
0.84583
33.6574
0.987872
-5.79819
1.94172
8.62144
2.261
20.7505
27.7892
30.4482
1.91437
7.23461
12.623
-0.44279
50.8798
37.0602
14.5084
14.662
0.74064
24.2826
17.2936
15.8242
10.5608
-14.5397
42.8123
44.0195
43.5833
-20.5778
21.0819
3.07675
31.5376
-60.456
-55.6361
21.788
9.73355
4.03495
-1.55819
3.41408
-108.567
42.79
35.7228
7.34794
0.788091
1.90806
10.942
15.5067
-2.45019
16.6901
4.10401
18.8704
-27.0134
0.889076
32.2812
19.7143
-4.72681
-36.5627
16.4428
-68.1434
14.1917
-27.9879
-1.10774
37.4002
3.2195
18.8724
25.2003
-88.3195
15.0539
-111.22
-1.60877
18.2537
-67.8418
-4.56739
-53.7741
10.6553
12.1646
18.7207
19.7164
-0.441432
-11.2478
-23.1499
11.7836
-30.7154
2.53348
8.28762
15.5003
31.9588
-10.3473
-19.8632
42.5108
47.7181
-8.63108
4.73111
-16.8491
26.5115
9.78044
49.3412
-11.522
22.5637
3.22071
15.3756
7.95409
25.0282
-5.18007
17.1671
27.6679
12.0774
18.7651
43.2867
21.2959
-0.397353
278.875
19.4846
-184.28
-9.05987
16.827
14.9131
22.5928
18.2698
-4.26902
-75.4215
10.7193
5.98059
-68.3668
-69.542
-2.93923
0.046997
27.9124
25.4491
9.8659
-12.7331
19.1665
2.47835
13.957
12.994
12.0345
-6.21904
7.76628
1.60552
19.664
42.1074
0.91679
-120.336
12.2767
43.3468
16.7386
3.72994
12.4397
17.8718
46.3814
24.2629
5.38962
2.49564
15.6343
21.5076
10.8721
42.7144
12.3185
11.1627
38.2369
-23.324
9.98409
11.5282
33.822
18.8865
39.9042
-0.591528
31.8145
32.7786
0.980912
11.7094
-54.9309
12.4202
44.8282
38.0105
29.5507
9.28564
12.801
4.41166
-2.18812
3.50038
18.5574
54.8952
9.89758
-114.881
26.5862
25.9006
-44.6916
10.8882
11.2455
10.4034
14.3733
-60.3489
-0.370084
14.3902
-1.48537
-12.2888
8.24525
22.2881
-33.3822
10.6129
18.3789
11.3243
-83.8923
42.9078
0.218935
-6.25094
-44.2286
2.05714
30.1998
18.4013
17.4869
3.97748
40.7149
34.3912
24.8961
32.5864
21.1502
21.0643
17.7924
-2.55856
6.12369
2.67252
225.168
46.9868
32.3306
9.50425
45.6628
37.0207
1.2459
-129.864
10.5861
18.1722
4.07145
-5.8108
15.9298
-56.1212
-53.4779
6.76069
18.208
7.83056
9.81679
-89.9418
-38.2784
-109.334
6.73336
6.0714
25.8552
9.26005
-57.9829
2.76199
-1.34594
-1.91171
-52.4594
39.4153
0.243286
-61.1615
23.8565
15.7638
21.2291
10.4967
88.4267
-12.8786
28.5479
-21.1685
-0.0576837
-56.6449
13.152
42.1015
9.89639
-5.75985
42.4037
29.3231
6.6603
43.6558
-14.4512
4.8288
8.55389
-13.3284
24.3503
4.55886
32.5549
16.1245
23.4385
-61.5081
10.0239
19.4627
8.10027
17.4334
24.8005
17.5939
22.4481
-0.0821262
141.977
19.9149
48.2169
9.04346
36.026
13.073
-1.8532
-3.69091
17.2516
19.4305
-27.7485
2.0262
3.84065
20.5062
-37.5792
-3.5443
97.4001
2.10846
10.4724
27.493
18.6205
6.30104
31.2963
7.08849
40.2882
8.68618
4.71424
4.46913
1.66575
16.423
-41.4654
18.4392
-1.20273
15.3935
3.30832
35.2404
-61.9053
11.4776
19.018
-1.88482
20.6798
23.6562
16.8923
11.2205
11.6186
30.4751
48.0701
16.9871
-15.57
4.623
19.2607
28.9623
17.5535
34.8724
-0.0173884
-42.6119
-2.35054
9.62861
10.4992
13.6043
31.4529
90.3054
16.7051
36.2194
0.233369
25.1402
9.31772
5.78534
36.1128
14.5478
24.643
29.6683
21.0451
22.5185
25.7393
26.2561
-9.31645
36.2816
16.3644
125.748
-36.3159
4.53936
-3.16249
28.4018
-5.04695
-11.7892
-0.990422
0.738161
93.1977
46.6839
9.62141
18.7846
16.6075
-51.1475
0.259229
12.0535
17.6315
5.79317
5.80708
-3.07796
-6.21713
25.5838
-0.81654
20.7988
13.9288
-0.541579
19.2803
8.75068
-66.5752
36.9947
19.9672
38.7031
4.74286
1.89309
2.86394
-0.510454
6.11495
22.7357
-13.011
1.46746
321.471
26.9102
18.9485
21.9586
-1.50218
-9.32087
4.08023
51.6325
0.252728
-124.816
2.581
0.0768562
17.3959
17.7203
-0.229315
14.915
198.596
18.7613
50.8802
12.7912
1.23271
18.3522
10.6653
34.6628
9.5339
-35.1564
2.40568
40.9486
20.0523
43.3041
-12.8596
-8.11206
18.0136
16.158
15.377
23.4689
10.2637
2.10245
30.3395
-0.0125023
-5.78354
-30.8802
19.7658
-71.2823
-36.2494
5.14696
15.1589
14.8656
-19.9798
1.72617
34.1214
16.3262
9.4291
6.62682
38.9364
13.6554
14.168
1.38892
1.12191
291.05
8.24866
14.6218
3.01935
0.642017
-0.497441
17.7627
16.8431
14.573
20.1918
3.08773
0.0123329
-0.0456128
0.0476817
14.6316
35.5306
1.48172
30.7967
-45.2768
-85.304
11.2938
20.4517
16.8618
18.4215
4.85735
-0.0785787
-29.3285
42.8911
16.1148
16.8153
13.7811
116.082
-45.8853
-41.9229
10.2154
45.4917
18.6269
27.3128
9.91025
9.35702
23.6072
-8.43302
12.655
1.79658
42.7998
15.0268
-71.4145
30.0042
9.27766
41.6032
4.41929
35.8963
-0.61996
0.477212
8.97337
16.4381
21.7244
8.45399
31.8537
-29.4691
-2.25788
-0.97209
6.3387
2.94587
18.3172
-2.27619
2.15387
5.6022
94.0995
38.4634
4.0736
10.3618
16.6069
-44.3604
-41.4543
-3.96429
24.5074
-66.6132
45.0508
12.0333
-67.4999
34.0816
13.5932
-42.0326
8.24147
-57.6825
31.5146
-39.2975
19.5866
-72.0282
1.97043
14.3978
4.23978
11.7577
17.5454
7.27939
8.4056
-4.81567
-0.750423
20.2651
18.1334
-30.7834
11.6869
-0.202261
3.36907
37.5603
40.5102
17.8213
-32.0846
-5.14922
-0.559891
12.3997
-127.517
15.8693
7.99823
27.9402
1.75521
-43.4916
-131.505
46.5467
34.8409
-1.55522
7.59208
35.8685
-68.4475
1.2537
9.48953
23.2982
-3.32559
3.19518
9.83199
37.9185
16.5866
18.6939
37.934
-45.8738
-5.2861
-17.0604
42.9487
-29.1878
-1.16575
41.2894
6.52174
-63.0498
-46.2659
34.5845
45.1177
-0.678534
11.1061
19.4765
1.34224
16.8091
-5.7909
8.57156
41.0009
12.3952
25.7037
151.776
6.65275
41.889
2.48307
12.5567
20.89
23.6204
16.9042
20.0507
3.62879
4.19585
2.56104
171.696
18.4372
-6.637
25.427
2.24943
6.44592
-41.7462
11.3717
14.0245
17.3091
-6.51513
38.8409
9.65794
7.69783
-0.568399
26.0002
9.4438
17.239
21.4047
9.208
44.4482
8.94754
27.4867
-9.32959
-120.636
10.2548
25.413
22.3507
10.9629
40.7963
0.186951
10.4402
35.9659
25.5712
12.629
-8.1677
7.80183
2.86248
27.1201
13.8148
59.4749
40.9651
-1.38379
15.1275
-0.152395
6.12323
33.5948
8.4499
41.9305
18.2214
-2.0848
16.5764
29.8599
15.8645
12.0985
18.3832
25.9214
10.087
24.7808
-63.0699
25.5559
51.743
7.90686
-95.0338
5.64164
7.04583
13.8127
9.10426
4.13278
36.9702
-27.2739
45.3352
47.3277
-6.09102
16.5067
138.824
1.0792
99.2739
-32.1119
4.25692
39.522
6.92072
17.2598
15.1516
5.81303
-0.358757
27.2735
17.0277
39.9893
91.0002
8.91195
4.42016
23.5629
5.96073
-8.34445
-84.1438
33.3674
-11.0763
19.0614
12.098
28.7202
20.7822
31.065
12.8956
41.3745
6.59665
2.48197
16.4162
-34.0829
0.0770094
33.945
32.3517
35.9256
-0.993165
25.9265
-1.89526
-7.57296
12.5782
13.8495
45.0468
44.3418
8.09292
14.1958
10.049
45.7894
16.2827
41.3675
17.9578
11.6956
16.5975
-1.6807
-0.227895
-44.3168
0.9828
-1.31813
65.0211
22.0704
154.096
2.42019
-0.265592
14.9962
6.59029
28.1087
49.4363
18.9874
10.3961
18.6472
50.3409
7.45061
18.8375
7.18661
1.17937
0.693888
24.9755
0.3186
1.61884
17.9372
8.43314
47.2427
6.76669
1.70289
-12.2819
2.91474
7.43
19.468
-69.3049
32.4145
18.1373
71.404
-0.878785
17.6686
43.8503
4.1482
17.1061
-29.3695
48.7726
19.9072
6.57536
29.2183
23.1639
-0.997027
35.3521
17.4718
24.5605
3.27293
7.63999
45.1722
173.742
2.36934
34.2305
10.8511
1.09679
22.5863
17.282
-2.80627
37.6786
-63.7586
7.74275
-5.17652
25.3067
1.15055
8.93644
2.57593
4.92982
28.3683
-17.12
14.7027
-135.4
-70.2387
20.3465
37.3895
-44.4659
29.9234
18.5164
42.3716
56.9159
45.5604
9.09667
285.345
-28.7462
23.06
12.0346
13.2334
-3.28456
26.2647
-9.64487
-10.6474
1.17947
23.6336
19.0258
-78.3949
-27.864
-5.85435
11.1332
-4.33393
-1.13124
-31.8273
14.4024
16.9919
30.4684
8.74507
44.1808
18.9106
-1.23371
10.1448
-4.93147
17.1018
16.8103
21.8425
-2.43036
-26.1858
8.98367
5.63143
-1.26901
71.35
5.59377
24.3598
8.43197
26.9281
9.13504
26.4202
18.6927
30.6151
17.0194
-34.112
-1.56847
-203.856
43.8932
-0.0895709
4.68382
21.3945
-31.2656
0.244077
-2.18477
5.80285
10.9519
-9.54902
5.7045
60.6379
13.7247
16.8806
-2.68497
-3.59891
-49.9276
17.6475
24.0611
-3.9431
45.5355
2.33816
38.2261
41.2738
85.7135
28.1665
15.6677
12.6862
31.2649
10.3847
20.0309
26.2541
11.6247
14.5067
18.8708
17.4784
47.9326
52.6937
-15.7871
18.2105
33.0126
34.9217
36.1883
11.8691
48.7771
0.779719
23.0399
18.9966
18.4418
19.1363
10.7145
-7.9204
7.65663
-12.1144
-54.3472
11.5627
23.6413
1.82089
-2.24587
-47.1485
-60.9329
15.0901
6.70161
26.7052
18.5621
-34.785
17.7419
17.535
10.4466
25.8037
7.06871
12.0033
9.22937
4.16827
-102.915
-0.296845
7.99719
54.6502
52.0902
-0.834859
-14.3403
-0.45865
15.4368
15.6204
-19.9559
38.9149
33.8765
25.9738
33.911
18.5844
28.6504
-52.9711
8.69706
17.2571
1.08084
-11.2495
10.0289
9.45983
3.87696
10.5697
-4.9605
-44.6353
-5.49743
0.89903
14.9328
-0.250887
29.0316
0.024484
-1.52564
16.4716
-58.6528
37.7051
17.5679
36.8502
8.75666
5.62122
45.5942
-40.1779
19.1624
14.6569
73.2403
7.38616
19.401
1.83536
42.6877
-0.780226
13.2264
30.3897
-25.8914
-0.564206
11.2641
45.5436
2.71702
13.2038
-1.95333
5.40092
19.1612
-106.819
-3.87606
23.4084
8.92791
-3.92772
10.8545
-4.10721
-0.901518
26.7654
24.5234
35.6806
17.3585
6.75272
-1.73881
-9.541
-0.475495
33.1286
36.7286
83.0066
-3.64728
13.5364
7.81133
76.4988
-43.024
-0.506802
-9.92558
44.6539
47.7115
15.5036
20.7004
17.0561
65.8738
-29.6358
20.1462
24.843
11.8304
18.3406
2.93647
10.1686
23.4017
1.83141
4.52167
-11.6663
17.3122
-161.683
3.03202
-45.8997
-1.07241
22.498
9.11605
47.4884
6.48723
-1.02173
30.949
-20.2562
-28.5767
-2.80782
-30.5103
6.92582
4.19967
60.866
-48.7045
31.0799
-68.3934
5.10785
26.925
-9.83792
4.96041
17.6406
15.0338
4.23744
12.8133
17.6763
-58.9052
10.496
17.8555
-33.1796
-33.4343
45.4641
17.8918
9.81606
11.7073
38.925
17.8436
20.3454
24.978
23.1746
17.4001
1.16031
10.3804
-15.0959
8.53848
35.4908
24.8107
0.0892071
16.0098
3.909
-0.0202007
30.4704
18.7024
16.1806
49.9583
15.6627
9.37055
-14.599
4.07753
-82.0753
9.18637
26.0662
22.3601
7.68327
14.0461
10.1628
15.333
-0.104341
8.66746
27.3204
1.89408
19.7953
10.7163
6.79929
101.127
14.6684
9.35254
-38.1271
-58.2165
16.723
22.9749
42.7869
4.73876
-0.69
53.9734
-9.16514
13.0771
0.942045
-107.628
9.7615
1.29506
-22.9376
8.66451
18.6196
33.1265
-93.0454
2.64571
9.19547
13.9478
8.44537
32.1912
20.0913
19.6937
24.672
18.6345
15.181
44.1655
-7.29671
37.6664
18.0808
-33.6079
117.572
-17.4289
13.1629
-40.7195
30.9392
19.0719
-0.488685
-11.4891
27.538
18.1865
8.09706
19.0437
12.5257
13.2094
38.6189
-0.399239
18.0957
-60.4878
8.94082
-56.7106
46.9778
23.8365
-74.6891
24.5479
-6.10776
-35.0526
38.8323
17.2726
5.54581
29.133
14.7236
31.7023
-31.6314
42.9746
29.4665
0.793936
23.8066
12.6584
10.1319
1.41939
-0.728046
1.8528
-54.4802
45.7641
14.4066
15.624
-0.669896
21.2343
34.0901
6.94797
16.5675
9.15783
-38.7921
7.72603
18.6925
-8.4103
5.83278
30.931
38.6664
2.09154
-1.19918
8.76635
-21.0378
5.22051
10.4905
17.798
4.62445
-0.759705
-30.3326
-12.1426
36.3817
6.21062
7.99769
-61.1262
-67.6144
45.7204
41.1259
16.2998
42.1001
48.8385
-0.667899
38.6487
16.8217
260.327
-6.06466
-67.0364
17.0575
8.13197
-1.67527
35.9786
18.0909
7.35152
17.8748
5.06951
23.9784
-3.47245
28.7269
12.8922
1.23076
-36.0134
18.5721
-1.89622
17.7704
-14.3527
8.24354
17.4501
-1.03907
-70.4727
5.14265
-0.565083
9.66485
-2.40887
24.0565
3.0842
29.304
13.7074
2.57627
39.8813
11.5839
12.0789
24.2905
40.1731
7.4102
46.885
1.05445
13.4294
12.8492
9.47848
-2.48739
32.855
10.9244
68.6464
16.6101
14.0332
5.56871
8.35733
-8.32225
2.10985
23.0355
13.689
29.905
17.6117
21.718
-5.44379
25.4889
-0.709102
-0.701611
-30.1017
-72.0898
14.9373
5.63048
0.653021
13.6704
4.9862
-100.449
18.4064
-7.18148
35.0028
4.09904
-1.39015
35.8356
-0.33141
23.0143
7.00901
37.8541
19.1635
26.8083
-14.4306
9.07335
36.4298
27.2309
14.3861
20.3891
1.74276
-2.40914
0.235259
2.66227
15.946
16.0393
25.7213
11.2143
10.0197
13.2019
34.4154
12.341
19.2449
36.6742
11.4753
-0.515081
59.7034
10.2511
66.8871
5.06886
17.4357
12.8508
17.609
11.109
55.4268
2.18584
-153.721
32.3732
6.32416
2.15809
-109.993
1.94659
77.9969
17.6905
33.7885
-3.38956
16.8099
16.4901
17.1699
12.3933
3.84158
16.9757
-5.46128
-0.973645
-14.5474
28.0151
13.5761
15.3377
7.51861
3.48987
-39.6839
23.9894
25.6289
8.57717
52.6292
10.4989
106.288
-45.0037
-32.6558
20.1453
1.37006
22.1744
-10.0205
-98.2929
-48.8342
28.6489
18.4346
16.56
40.7697
5.25212
44.3865
8.98624
18.4809
33.482
13.806
1.47698
30.4793
278.591
-143.272
-65.8987
-0.652693
44.544
3.71979
27.7553
18.7515
9.92096
3.71067
-1.07448
24.3453
-32.8479
-0.908173
-5.75905
30.1956
9.61031
-0.665108
6.92392
19.0832
-30.8244
-6.72764
2.8867
1.02323
27.0496
81.9967
34.0218
24.5607
-30.7492
18.5274
40.2202
21.3286
-78.3075
-61.4988
-13.1243
-8.95205
-5.74951
-11.4061
25.3581
35.2932
0.549194
9.38255
-3.7027
39.7793
11.7441
4.58524
15.4861
-4.02675
5.40627
11.202
19.6475
-4.55476
9.22851
155.874
9.17448
13.523
40.5279
29.3473
-17.8129
-10.635
37.6933
43.8404
7.74556
17.6849
6.14257
-10.7905
18.8517
8.16117
-4.30447
8.02572
-2.36013
40.8978
-28.6612
-8.57278
12.3127
13.3738
-2.54361
-1.02539
22.9613
8.31925
24.9131
0.142771
-1.44002
30.0534
-14.0766
17.6786
36.3445
-28.2656
16.0598
33.3305
14.7285
8.42007
8.51171
1.85807
17.7449
-1.36734
-73.2614
21.129
18.3113
42.2414
-13.4632
20.1833
3.40865
17.4619
23.1224
27.3003
9.83579
27.7387
11.717
12.7292
39.2636
13.4394
5.22929
4.06196
35.6904
10.4283
-3.47743
22.8335
15.1617
14.2218
19.0436
-3.31423
-6.63093
12.4219
-42.0667
-67.501
34.4369
15.8356
14.4071
67.0078
5.96699
9.62665
19.0443
27.6369
38.3534
17.7508
-6.72829
40.9488
12.4762
106.835
-0.0280672
-1.01316
-0.446878
-26.5533
2.74941
14.6941
8.6393
2.68999
-36.9075
0.128568
4.70196
47.8445
17.682
0.841479
-8.55497
25.1427
-11.4181
15.5694
-72.1134
8.02672
5.57347
38.0854
25.905
31.9663
0.6842
-3.8373
8.1683
18.8815
46.6833
32.3078
17.5824
24.8402
10.4228
6.15591
7.55197
33.0136
21.5998
9.1482
-8.57283
3.66747
-14.3992
6.0972
-53.6843
2.36644
-1.58819
16.9885
-18.0928
33.2703
19.4804
40.4821
-35.2203
-4.41881
39.3855
4.8047
-0.305916
4.16801
5.44639
5.99269
19.1345
-29.8695
0.685789
25.8306
2.6033
21.1629
18.9242
-28.687
14.4999
45.2478
28.6259
-33.4577
16.8517
43.763
-45.259
24.0961
-23.1048
-45.5578
4.60698
97.8258
13.5421
28.2059
30.1376
26.7199
10.206
27.7874
-81.7979
15.4234
44.6962
3.31889
1.05241
-24.2012
-88.1123
18.1311
-52.627
-10.2093
36.6691
-6.49449
-38.4641
18.4064
47.6526
38.9111
1.40865
5.59968
11.3506
3.78273
-0.529886
18.0081
31.1011
6.73885
0.757753
29.4652
18.6558
-43.0762
-2.38779
15.2399
34.4927
29.2399
6.46253
9.93153
20.2178
7.16973
36.6472
8.26544
-24.0772
8.7842
75.6345
-25.6612
17.002
1.12047
6.49698
-52.511
7.82223
25.6532
10.944
30.7522
-30.68
36.4566
1.78162
-42.8971
8.72912
-9.11909
13.2512
13.8397
6.71905
78.2771
5.18141
22.9067
29.7161
25.148
31.0273
-83.5214
22.4799
34.0195
12.3659
-88.9734
16.6675
116.762
10.644
5.08958
26.166
0.716283
12.6701
24.7573
6.72527
-40.8504
9.19596
154.989
8.43242
-45.5784
24.3032
2.61202
9.20645
0.486973
17.7952
0.149064
24.221
-7.73126
90.3993
41.3056
16.9083
9.05341
13.3125
-1.17583
-0.86824
31.3384
25.675
14.1157
38.2958
15.3963
-10.1332
65.7342
15.2415
2.91957
22.6712
0.925477
3.489
13.536
11.4625
6.4644
-30.4094
39.6114
21.8964
-32.0106
19.2421
19.1462
1.4243
7.25572
9.16348
14.1027
8.66665
22.7366
0.47049
0.420138
8.71734
8.26132
23.8476
64.5453
-0.628716
13.7817
18.3801
13.8739
15.7841
6.71809
-27.6246
-0.439707
12.5349
-5.42518
-0.294738
15.3476
-30.4051
24.9705
-7.35526
-29.8863
-77.9743
34.1987
-81.5591
-35.9273
10.3131
8.98694
33.8628
-9.61722
11.0206
-44.5295
18.7722
5.98595
14.4895
15.3845
10.2611
15.308
-40.0731
-22.8103
0.199222
3.69957
23.5102
0.247887
35.1216
-43.843
21.3347
15.9584
7.04451
14.179
11.0053
19.3335
0.66517
10.9283
5.72221
-87.7877
26.9783
19.6632
-161.393
22.2529
15.8354
0.319048
28.7154
-1.2681
13.6079
47.1567
29.1902
13.9994
13.263
76.0253
11.6145
24.4297
-180.899
-33.0558
6.20376
46.7727
13.4683
19.7144
24.7322
13.5815
9.24046
-21.4577
-10.2446
-1.68527
29.6961
18.9911
11.834
6.64168
-2.30825
16.3819
17.0112
24.2162
-13.7152
31.6617
88.879
-40.9046
4.22521
11.8214
17.7359
-34.2309
4.82464
-0.429185
-24.3757
0.340196
9.21402
47.5221
-0.195109
36.1161
12.3084
-18.9873
42.5563
2.74303
-1.03484
22.8735
14.0798
-2.45277
0.309088
33.8399
36.6962
18.9589
-5.29428
30.9966
32.5855
5.38823
2.52227
15.7555
-87.4763
27.2301
8.19995
24.3351
31.9332
-139.2
-76.2191
-0.824379
17.2139
10.4292
39.7862
-73.3435
2.1436
31.5253
44.201
-37.032
8.58951
-33.3303
7.38207
18.7633
27.8132
18.9321
24.6741
27.5787
46.7523
-0.143971
58.7498
15.4556
-6.83347
-67.126
71.9815
3.36624
6.15144
6.32177
19.5617
4.28389
30.0934