/*--------------------------------*- C++ -*----------------------------------*\
| =========                 |                                                 |
| \\      /  F ield         | OpenFOAM: The Open Source CFD Toolbox           |
|  \\    /   O peration     | Version:  4.0                                   |
|   \\  /    A nd           | Web:      www.OpenFOAM.org                      |
|    \\/     M anipulation  |                                                 |
\*---------------------------------------------------------------------------*/
FoamFile
{
    version     2.0;
    format      ascii;
    class       surfaceScalarField;
    location    "600";
    object      phi;
}
// * * * * * * * * * * * * * * * * * * * * * * * * * * * * * * * * * * * * * //

dimensions      [0 3 -1 0 0 0 0];

internalField   nonuniform List<scalar> 
21699
(
-0.0211789
-0.00540451
0.0265835
0.0207609
0.00115996
-0.0219209
-0.0369127
0.0157337
0.0240111
-0.00325013
-0.0271048
0.0046755
0.0224293
0.0106998
-0.0159603
0.00526048
-0.0348531
0.0224652
0.0123878
0.000745159
0.00809833
-0.00884349
-0.00602563
0.00551023
0.000515396
-0.00392327
-0.00639634
0.0103196
0.0335844
0.00375974
-0.0373442
-0.0205963
0.0168608
0.00373552
0.0125496
-0.0270645
0.0145149
-0.0108474
0.00873309
0.00211426
-0.0147657
0.0416956
-0.0269299
-0.0435117
0.00941233
0.0340994
0.08164
-0.0754309
-0.00620914
0.0367678
-0.0147419
-0.0220259
0.0207552
-0.0355209
-0.000277526
-0.000829257
0.00110678
0.0379018
-0.0200255
-0.0178763
0.00734053
-0.00238312
-0.00495741
0.0243867
0.021163
-0.0455497
0.0127207
0.0251811
0.0503015
-0.0167171
-0.0587228
0.0408125
0.0179103
0.000265039
0.0416112
-0.0418762
0.029339
0.0523011
-0.0115072
-0.00908903
-0.00245433
0.00544484
-0.00299051
0.00332185
-0.00354992
0.000228069
-0.0545711
0.0201527
0.0344184
-0.00737259
-0.0197322
0.0371981
-0.0261727
-0.0110254
-0.0244502
-0.0160386
0.0404888
-0.033413
0.0367257
-0.00331271
0.0537871
-0.0294004
-0.0087778
0.00952296
0.0392131
-0.0309999
-0.0082132
0.00401399
-0.0100846
0.0060706
0.0446229
-0.0443578
0.00136996
-0.00382428
0.00625915
0.0320771
-0.0383363
0.00715629
0.00101663
-0.00817293
-0.00527355
0.0159733
0.0213805
-0.00877055
-0.01261
-0.0479327
-0.0107901
-0.000924327
-0.00570896
0.00663329
0.00280986
-0.00445672
0.00164686
0.00318873
0.0041518
-0.0469114
-0.0076597
0.00884719
-0.00591104
-0.00293615
-0.00303095
0.000385601
0.00264535
-0.00661118
-0.0268018
-0.000508276
0.00331813
0.0154668
0.0237463
0.0315876
-0.019315
-0.0122726
-0.0229935
-0.0118596
-0.0395903
-0.0012855
0.0408758
0.00584741
-0.0017925
-0.00405492
-0.0087612
0.0458891
-0.0371279
-0.0301957
0.0114638
0.0187319
0.054611
-0.0438688
-0.0107422
-0.0154305
0.0403956
-0.0341365
-0.000545328
0.0215961
-0.0210508
-0.0178946
0.0304442
0.000647199
0.00520021
0.00447628
-0.000499913
-0.00397636
-0.0139544
-0.0128965
0.0268509
0.00347608
0.0010002
0.0268679
-0.0455872
0.0187192
0.0313628
-0.0145746
-0.0167882
-0.0136622
-0.0064387
0.0201009
0.036785
-0.0687043
0.0319193
0.000581213
0.0238763
-0.0244575
0.036785
0.00542027
-0.0402731
0.000682789
-0.00496174
0.00448947
0.000472275
-0.0452046
0.00169292
0.00542988
-0.02988
0.0197844
-0.014398
-0.00538642
0.0126339
-0.00861995
0.00511714
0.00855965
-0.0136768
0.0203923
0.0168059
-0.0185955
0.0182475
0.000348018
0.00305859
0.0057886
0.039964
-0.00956468
-0.0303993
0.0145856
0.0167772
0.035143
0.00198669
-0.0371297
0.00509141
-0.00363922
-0.0014522
0.0190555
0.0125321
0.021297
0.0154708
0.0447357
-0.0257877
-0.018948
-0.000968562
0.00190667
-0.000938106
0.0383734
-0.0167609
-0.0216124
-0.00497641
-0.0523382
0.0573146
-0.0460034
0.0427953
0.00320817
0.00266984
-0.0161723
0.0135025
-0.0485918
0.0632716
-0.0146798
-0.0325324
0.0138433
0.018689
-0.00936064
-0.0143891
0.0237497
0.0156771
0.00924408
-0.0249212
-0.0624229
0.0378317
0.0245912
-0.0202624
0.0278789
-0.00761654
-0.077807
0.0323168
0.0454902
0.00376624
-0.00719906
0.00343281
-0.0181801
0.0228556
-0.0364341
0.0513754
-0.0149413
-0.0434664
-0.0187807
0.0217857
-0.0303387
0.00855308
-0.0488439
0.0684766
-0.0196327
0.0483211
-0.0362307
-0.0120904
-0.0042327
-0.0282997
-0.00987215
-0.00539466
0.0152668
0.0314385
-0.0162483
-0.0151902
-0.00460978
0.0385031
-0.0338933
0.00187731
-0.00314954
0.00127224
0.00576395
0.0016008
-0.00736475
0.034407
0.0161857
-0.0505926
-0.00538701
-0.0136709
0.0190579
0.02054
0.0123071
-0.0328471
0.0309045
0.0237065
0.0507355
-0.0307052
-0.0200303
-0.0253476
-0.0427738
-0.0674735
0.0386524
0.028821
0.00619697
-0.00838082
0.00218385
0.0162659
-0.0384527
0.0221868
-0.0215608
0.0157407
0.00582008
0.019178
0.0288126
-0.0479906
-0.0180321
0.0125036
0.00552846
0.0316838
-0.0261695
-0.00551424
-0.0001009
-0.0180792
-0.00552524
0.0404489
-0.0349237
0.000461571
-0.000973984
0.000512413
-0.018361
0.0383682
-0.0200072
0.0460659
-0.0300372
-0.0160288
0.0259385
-0.0148352
-0.0111032
-0.0301161
-0.0348153
0.0649314
-0.0188893
0.0347067
-0.0158173
0.0463123
-0.0124373
-0.033875
-0.00616673
0.0052424
0.00738701
-0.0459796
0.0385926
-0.0429375
-0.024536
-0.0273686
0.00416447
0.0232041
0.0316344
0.00222873
-0.0338631
-0.00425447
0.00262339
0.00163107
-0.0286272
0.022946
0.0056812
-0.0350042
0.0147418
-0.0189251
-0.0319933
0.0509184
0.00807569
9.77107e-05
-0.0081734
0.0253386
0.0321567
-0.0574953
-0.022268
0.0169945
0.00261634
-1.17863e-07
-0.00261622
-0.0602664
0.0445502
0.0157163
-0.024754
0.0173214
0.00743265
-0.00239615
-0.000632448
0.0030286
0.0482284
-0.00306127
-0.0451671
0.0123641
-0.0758041
0.0634401
0.0465336
-0.0321331
-0.0144005
0.0115799
0.035723
-0.0473028
0.0328546
-0.0416158
0.0065063
0.0251281
0.00874629
0.019118
-0.0278643
0.00197301
-0.00337457
0.00140156
-0.00402119
-0.049132
0.0531532
-0.00178531
0.00894161
0.0298685
-0.0242575
-0.00561102
0.0127356
0.0256377
-0.0291512
0.0613687
-0.0322174
-0.010927
0.00733858
0.00358846
0.00502418
-0.00887479
0.00385061
-0.000285923
-0.0015826
0.00186852
-0.00465661
0.00424528
0.000411331
0.00827027
-0.00482181
-0.00344846
0.0261269
0.0254847
-0.0516116
-0.00458301
0.00194619
0.00263683
0.0118561
-0.0315877
0.0197316
-0.0638655
0.0406212
0.0232443
-0.0434777
0.0161091
-0.0336816
0.0449518
-0.0112702
-0.0212811
0.00949216
0.011789
-0.0151975
0.000962267
0.0142352
-0.0014128
0.0131632
-0.0117504
0.000945963
-3.78303e-05
-0.000908132
0.0144295
-0.00931231
0.064499
-0.0365814
-0.0279177
-4.13918e-06
-0.0020254
0.00202954
0.0222312
-0.0292692
0.00703809
0.000739098
-0.000986403
0.000247305
-0.0730196
0.0423312
0.0306884
-0.00771539
0.00423184
0.00348355
0.0183251
-0.0362197
-0.00486967
-0.0024994
0.00736907
-0.0506297
0.0521965
-0.00156674
0.00482142
-0.00149957
-0.0196794
0.00683783
0.0128415
-0.000705048
0.00392959
-0.00322454
-0.00359887
-0.000655598
0.0559056
-0.0641933
0.00828766
0.00955646
-0.0449056
0.0353492
-0.0450387
-0.0160498
0.0610885
-0.0536822
0.0347571
0.0473152
-0.0157929
-0.0315223
-0.00645387
0.00102374
0.00543014
-0.0467971
0.0401578
0.00663935
0.0269413
-0.032952
0.00601072
-0.022269
0.0537106
-0.0314416
-0.00900178
0.0229134
-0.0139116
-0.0486303
-0.00230148
0.0509318
-0.0462519
0.00189799
0.0443539
0.0143807
0.0324453
-0.046826
0.0298432
-0.0239139
-0.00592936
0.00733937
0.0347618
-0.0421012
0.0251301
-0.041515
0.0163849
-0.00863569
-0.034842
0.00467954
-0.00550824
0.000828694
0.00088323
-0.000189445
-0.000693786
0.000534411
-0.00361685
0.00308244
-0.0088294
-0.0242501
0.0330795
0.0386073
-0.016418
-0.0221893
0.044709
-0.0284431
-0.0459661
-0.0164568
-0.019375
0.0398912
-0.0205163
0.00249753
-0.0511764
0.0486789
-0.0208963
-0.00929941
-0.000554767
-0.00254808
0.00310285
0.0637855
-0.0637855
0.00446876
-0.0533127
0.00351138
0.0249615
-0.0284728
0.0239948
0.0175026
-0.0414974
-0.0316598
-0.00329086
0.0349507
-0.0437197
0.00691794
0.0368018
0.0402588
-0.0133908
0.0115048
-0.00899678
-0.00250797
0.0242507
-0.0244955
0.000244826
-0.00186957
-0.00258715
0.0402788
0.00609886
-0.0463777
0.0245924
0.0124866
-0.0370791
0.0195531
0.00756782
-0.0271209
-0.0499498
-0.000460958
0.0504107
-0.0264251
0.0161147
0.0103104
-0.0038408
0.00521076
-0.0181256
-0.000469905
-0.0162141
0.00634196
-0.0679901
0.0510017
0.0169884
0.0559925
-0.0116689
-0.0443236
0.0820965
-0.0391217
-0.0429748
-0.00696792
0.0183594
-0.0113914
-0.000469538
-0.00312933
-0.0146767
-0.0313268
0.0549101
-0.0453537
-0.0321769
0.0267289
0.00544799
0.00472462
-8.27673e-05
-0.00464185
0.0097773
-0.00909871
-0.000678586
0.0165204
0.0133481
0.0430346
0.0390619
-0.0547833
0.0183491
-0.067243
0.0581931
0.00904987
-0.0109637
-0.043929
0.0548927
0.047543
-0.0401559
0.0553777
0.000614836
-0.00919348
0.0356261
-0.0264326
0.0270466
-0.0274331
0.000386518
-0.055678
0.0772005
-0.0215225
-0.0420965
0.0787339
-0.0366373
0.0280886
-0.00853558
0.00360944
-0.00124468
-0.00236476
-0.00967612
0.012346
0.0776514
-0.0506936
-0.0269579
-0.00113008
-0.031554
0.0326841
-0.00578332
-0.00614581
0.0119291
0.0179024
-0.020583
0.00268059
-0.0669764
0.0350625
0.0319139
-0.020793
0.00747453
0.0133185
0.0107561
-0.00562125
-0.0051349
0.00491219
0.00128478
0.075227
-0.0469699
-0.0282571
0.00339053
0.00741225
-0.0108028
-0.0134204
0.0252765
0.0366894
-0.0560137
0.0193243
-0.000970579
-0.032711
-0.018642
0.0239297
-0.0052877
0.0593858
-0.0226965
0.0347157
0.0429358
0.0339124
-0.0147068
-0.0192057
-0.00301541
0.0148532
-0.0118377
0.0648649
-0.0492683
-0.0155966
-0.0050889
-0.00219691
0.00728581
0.024225
0.00968746
-0.00455636
-0.0416793
0.0462356
-0.0202438
0.0212632
-0.00101943
0.00705367
0.00146201
-0.00851568
-0.00106541
-0.000573111
0.00163852
0.0489035
-0.0291961
-0.0197075
-0.00722278
0.000125322
0.00709746
0.0504018
-0.0692662
0.0188644
-0.0115628
0.0285381
-0.0169753
0.0337631
-0.0772295
0.0399397
0.0352873
-0.00673023
0.00164133
0.00744763
-0.0113899
0.00394231
-0.0040339
-0.00410794
0.00814184
-0.0339683
0.0616684
-0.0277001
-0.039484
0.0275292
0.0119548
-0.0103534
-0.00767868
0.0471505
-0.0327698
-0.0219641
0.0188966
0.00306748
0.0506623
-0.0575126
0.00685022
0.0551222
-0.0297836
-0.0353533
0.0524262
-0.0170729
-0.022162
0.0607463
-0.0385843
0.0533302
0.0040948
-0.057425
-0.000579943
-0.00385391
0.00443386
0.0202026
-0.0129719
-0.00723069
-0.0751312
0.0457757
0.0293555
0.0328087
-0.0518516
0.0190429
-0.00423982
0.0225494
-0.0183096
0.0661023
-0.0414382
-0.0246642
-0.00144545
0.00047689
-0.0238217
0.0207914
0.00303026
0.00691754
0.00458722
-0.000179135
-0.000491458
0.000670593
-0.00538344
0.062998
-0.0576145
-0.0371445
0.0312135
0.005931
-0.0275884
-0.0287534
0.0563418
-0.00114168
0.00356745
-0.00242577
0.0764074
-0.048584
-0.0278234
-0.00461983
-0.0361671
0.0407869
-0.0168143
0.0701444
0.0112429
-0.00418424
-0.0070587
-0.000357922
1.64723e-05
0.00034145
0.0733364
-0.0613218
-0.0120146
-0.0566504
0.0644553
-0.00780493
0.0106053
0.0208332
-0.0721582
0.0528389
0.0193193
0.030931
-0.0730275
-0.0152912
0.019751
-0.00445986
0.0152022
-0.0161683
0.000966085
0.000305285
0.0101429
-0.0104482
-0.0359228
-0.0370968
0.00962225
0.0159567
-0.025579
0.0125769
-0.0588288
0.020597
0.00534143
0.00583926
0.00619639
-0.0120356
0.00896943
-0.0294397
0.0204703
-0.067087
0.0289941
0.0380929
-0.000331554
0.0450677
-0.0447361
0.00273987
0.00235154
0.0329303
0.0319346
0.00511868
-9.41512e-05
-0.00502453
-0.00569198
0.00519207
0.0297994
-0.0707105
0.0409111
-0.0751909
0.061635
0.013556
-0.0387962
0.0285575
0.0102387
-0.0293008
0.0469161
-0.0176153
0.0226212
0.0268961
-0.0495174
0.0123694
-0.0531982
0.0408287
-0.00972357
0.000494966
0.00922861
-0.0416652
0.0371089
0.00445023
0.000274386
0.0686365
-0.0265612
-0.0420753
-0.0116255
0.0344216
-0.0227961
-0.00290095
0.00343536
-0.0600901
0.0491265
0.032839
-0.0341245
0.0219906
0.0227452
0.00435696
-0.00491173
0.0666223
-0.0620933
-0.00452895
-0.0213711
0.0385267
-0.0171556
-0.0241567
-0.0438334
-0.000355001
0.0225862
-0.0120494
0.0260496
-0.0140002
0.028876
-0.0131988
-0.0213234
0.0514828
-0.0301594
0.057914
-0.0197691
-0.0381449
0.00918038
0.0108391
-0.0200195
0.0130449
-0.0371872
0.0241423
0.0277406
0.0171864
-0.0449271
-0.0283019
0.0141957
0.0141062
-0.0302766
-0.00190024
0.00817256
0.0121866
-0.0203591
-0.0509449
0.0113793
0.0395656
0.0220167
0.0464599
-0.0108636
-0.00311356
0.0139771
-0.0305206
-0.0063921
0.0188837
-0.0536042
0.0347205
-0.00461447
0.000997623
-0.0100616
0.0139776
-0.0153904
-0.018215
-0.0282287
0.0464437
-0.0386471
0.0669496
-0.0283025
-0.0450387
-0.0254202
0.0343897
0.034664
0.0114019
0.0307173
-0.0666401
-0.0502076
0.0192382
0.0309694
-0.0399205
0.0114697
0.0284508
0.00136825
0.0216354
-0.0230036
0.00219681
-0.0107139
0.00851707
0.00934225
-0.00566526
-0.003677
-0.0119453
-0.0184379
-0.000657671
0.0190956
0.0443265
-0.0100442
-0.0342823
-0.0127778
0.00661035
0.00616746
-0.0239428
-0.0512482
-0.0329373
0.0587596
-0.0258223
-0.0491898
-0.00435837
0.0535481
-0.036565
0.0425827
-0.00601762
0.0280853
-0.00754529
0.00359718
-0.00417713
-0.0148789
0.0172483
-0.00236931
0.0224327
0.0436697
-0.0354377
0.0347544
0.000683272
0.0396534
0.0110821
0.00204804
-0.0283153
0.0262672
0.00258797
0.0161041
-0.0186921
0.0254863
-0.0641334
0.0377732
-8.70974e-05
-0.0376861
0.0189366
-0.0190442
0.000107632
0.0110532
-0.00608723
-0.00496599
0.0157412
-0.013404
-0.00233727
0.00912151
-0.0312493
0.0221278
-0.0023494
-0.0125295
0.0110614
0.0352509
-0.0082354
0.013269
-0.0050336
0.0521101
-0.0259831
0.01873
0.0103789
-0.0291089
0.0567679
-0.0621514
-0.0178674
0.00271832
0.0151491
-0.0472636
0.0386103
0.00865334
-0.0307854
0.0202003
0.0105851
-0.00134881
-0.00164734
0.00299616
0.00666161
0.0202797
-0.00955323
0.0346834
-0.00411473
0.0300294
-0.0259147
-0.0399492
0.017733
0.0222162
0.0295041
0.0117194
-0.0412235
0.0182845
-0.0371738
-0.051668
0.036876
0.014792
-0.00101058
-0.0142099
0.0152205
-0.00635159
0.00614145
0.000210139
-0.0159779
0.0347079
0.0814854
-0.0425734
-0.038912
-0.00331188
0.032816
0.0539815
0.0224259
-0.028771
0.00540705
0.023364
0.0109566
-0.050273
0.0393164
0.00920197
0.0105824
0.0177488
-0.0363191
0.0185703
0.00677939
0.00149088
-0.00607111
0.0247635
-0.0186923
-0.00818166
-0.0111059
-0.0283781
0.0236375
-0.000629146
-0.0230084
0.0113014
-0.0336663
0.0223649
0.0132901
-0.0107021
0.032686
-0.0609952
0.0283093
-0.0261768
-0.0137724
0.043577
0.020922
0.040444
0.00608963
-0.0360008
0.0548844
-0.0341372
0.0523165
-0.0181793
0.0364047
0.00355935
0.00046448
-0.00105823
0.000593748
-0.0146621
-0.00558163
-0.00272472
-0.00330091
-0.0539338
0.0541409
-0.000207092
-0.00301437
-0.0031842
0.00619856
0.0456246
-0.0146344
-0.0309901
-0.0135444
0.00672211
0.00682228
0.0217278
-0.0309213
0.0458649
-0.0304906
-0.0153742
-0.0250192
0.0244739
-0.0424994
-0.0105021
0.0530014
-0.0432579
0.0359111
0.00734675
0.00780649
0.00134498
-0.00915147
-0.0757119
0.00509294
0.0706189
-0.0277469
0.0124879
0.015259
0.0503315
0.0311539
0.0567435
-0.0341223
-0.00267002
-0.0237131
0.0263831
-0.0119137
0.0154427
-0.00352897
-0.00200302
-0.00434856
-0.0643128
0.0334506
0.0308622
0.00129649
-0.000353519
-0.000942968
-0.00161269
0.00170104
-8.83538e-05
-0.00021748
0.044544
0.0281205
-0.018999
0.00198224
-0.00198638
-0.0271742
0.00914859
0.0180256
0.0455537
-0.0444708
-0.00108288
-0.0103631
0.0260162
-0.0156532
-0.0247887
0.00692129
0.00762155
-0.000173917
0.0229176
0.0226668
-0.0455844
0.00180973
-0.0126571
-0.00295252
-0.0443111
-0.00395887
-0.00766639
0.0116253
0.00483285
-0.00216029
-0.00267257
0.0130067
0.00827809
-0.0212848
-0.00905071
0.0160233
-0.00697262
0.0172437
0.0503158
-0.0134944
-0.0368214
-0.00222745
0.0079914
0.0140116
0.0244104
-0.038422
-0.00293215
0.00951924
-0.0255963
0.016077
0.0619254
-0.0559246
-0.00600084
0.0336892
-0.0579116
0.0242225
0.0427622
-0.0396707
-0.00309154
0.0117058
-0.0826363
0.0709305
0.0290011
0.018314
0.00146646
0.0259512
-0.0274176
0.0243002
-0.0359258
0.0579194
-0.0662317
0.00831233
-0.00765266
0.0280449
0.0103463
-0.0172178
0.00687157
-0.0239336
0.0379452
-0.0680507
0.0588369
0.00921384
-0.0397977
-0.0141018
0.0538995
-0.0147893
0.0285579
-0.0137686
-0.0398795
0.0240866
0.00303279
-0.00256281
-0.000469972
0.00092766
-0.0224885
0.0450387
0.0217298
-0.0667685
-0.0525563
0.0173847
0.0351716
0.0624939
-0.0178711
0.0124611
-0.00662181
-0.0149886
0.0297716
-0.014783
0.00148812
0.036285
0.00642197
0.0321883
-0.0309411
-0.0209204
0.0553274
0.0174657
-0.0137132
-0.00375248
0.0230233
-0.00472774
-0.0182955
0.0332933
0.0140782
-0.0473715
0.00919036
-0.0225746
0.0133842
-0.000190239
0.000929337
-0.00551739
0.00906219
-0.0035448
0.0272591
-0.0272591
0.0728568
-0.0598801
-0.0129768
0.062179
0.00806427
-0.0702433
0.00045534
0.0042242
-0.00557511
0.00890023
-0.00332512
-0.0221272
-0.0465771
0.0472469
-0.0453489
-0.00127977
-0.00368198
-0.0239744
-0.0248069
0.0487813
0.0219879
-0.0245964
0.00260858
0.00160114
-0.00731009
-0.0295935
0.0182932
0.0113003
0.0262113
0.012396
0.00698125
-0.0435463
0.0652644
0.00807198
-0.0164694
0.00549378
0.0109756
-0.0175514
0.0512405
0.00306351
-0.000661184
-0.00240233
-0.0533646
0.00666726
0.0466974
-0.072849
0.0115272
0.0401678
0.0241855
-0.0643533
-0.00968887
0.00273571
0.00695316
-0.0203236
-0.00830356
0.0213183
0.00852495
0.0479877
-0.0288097
-0.0343278
0.0530286
-0.0187008
0.0221913
-0.0327644
0.0105731
-0.00714922
-0.0414811
-0.00807135
-0.00839807
0.0285219
0.0374781
-0.00453236
-0.00318303
0.0371592
0.009775
-0.0469342
0.0429529
-0.0455387
0.0025858
0.0724394
-0.0505453
-0.0218941
-0.00257794
0.0126503
-0.0100724
-0.0180765
0.0358253
0.0163613
-0.0333219
0.0169606
0.0550386
0.000288525
-0.0553272
-0.00456468
0.0549665
-0.0377664
-0.0010298
0.0240394
-0.0414495
0.01741
-0.013808
0.00684007
-0.0431401
0.0313501
0.0117899
-0.0353791
0.0463356
0.044868
-0.0115747
0.00468247
0.0570722
-0.0617547
-0.0546847
0.00609296
0.00755187
-0.0212141
-0.00862402
-0.0423208
0.0267646
0.0131093
-0.0398739
-0.0016262
-0.0177905
0.0194167
-0.00482539
-0.0187109
0.0235363
-0.0400496
-0.013925
0.0539746
0.024536
0.00892068
-0.0334567
-0.00127923
0.0423452
-0.0410659
-0.0201664
-0.0436991
-0.0378488
0.0375173
0.0184712
0.0169937
-0.035465
0.0209673
-0.00796057
0.00578109
-0.00283174
-0.00294935
0.00467605
-0.000292373
-0.00438368
-0.0427252
0.0294122
0.013313
-0.00443783
-0.00525104
0.0220608
0.0286016
-0.0153791
0.0224951
-0.00711599
0.0128834
-0.0336783
0.0207948
-0.00115995
-0.0405193
0.0150077
-0.0429711
0.0279634
0.0360696
0.0188405
0.0190679
0.00113463
0.00492798
-0.00201225
-0.00291573
0.0307186
-0.0407973
0.0100788
0.055016
-0.0275502
-0.0274659
-0.0455774
0.0608552
-0.0152778
-0.0269071
0.0152426
0.0116645
0.0349817
-0.0193447
-0.0156371
-0.0127687
-0.0343884
0.0471571
-0.0298546
0.0114072
0.0184474
-0.00894202
-0.00365317
0.0125952
-0.0450429
0.0396384
0.000675991
-0.00357694
-0.0246857
0.0266429
-0.00195724
-0.0451509
0.0146727
0.0304782
0.0531681
-0.00626953
-0.0468985
-0.00527099
-0.0282353
0.0335062
0.00540582
0.0218298
0.0237948
0.0756113
-0.0791312
0.00351986
-0.000693274
0.00115485
0.0561688
-0.0262954
-0.0298734
0.040878
-0.00579117
-0.0350868
0.00610479
0.0209418
0.0365824
-0.00812149
-0.0284609
0.0409161
-0.00137654
-0.0395396
-0.00631759
-0.0149635
0.0368488
-0.00442025
0.0372289
0.00550799
-0.000831939
0.0261963
0.0466605
-0.000164349
-0.00144834
-0.0287939
0.0614798
0.0621869
-0.0243327
-0.0378542
-0.00039049
0.0023635
-0.00709466
0.055323
-0.0139138
0.032385
0.0267948
-0.0180485
-0.0615641
0.00903805
0.052526
-0.0441809
0.0430209
0.00501477
0.0602497
-0.023928
-0.00297908
-0.0028334
-0.00730204
0.0101354
0.00921525
-0.0391796
0.0299644
-0.0403154
0.0185776
0.0217378
-0.00390281
0.00579375
-0.00189095
0.000988713
0.0238658
-0.0248545
0.0179024
-0.0312975
-0.00423286
0.0355304
0.0058852
-0.00249402
-0.00339118
0.00032086
-0.0155183
0.0455572
-0.0243647
-0.0211925
0.0211161
-0.000855501
-0.0202606
-0.000103173
-0.00878514
0.0372907
-0.0285055
-0.00381209
-0.057752
0.0510117
-0.0202944
0.0513648
0.000638268
-0.0520031
-0.0189197
-0.0468335
0.0657532
0.000814618
-0.00534698
0.00650571
-0.000745103
-0.00576061
-0.0348379
-0.00153677
0.0363747
-0.00805347
-0.00139937
0.00945284
0.0229438
-0.0155034
-0.00744046
-0.0340647
-0.0110862
-0.0138312
-0.00710746
0.0209387
0.055591
-0.0159375
7.65398e-05
0.0217091
-0.0622668
0.0727783
-0.0105115
-0.0385239
0.0339142
0.000978939
0.0177406
0.0139432
-0.016706
-0.00408702
-0.00219975
-0.00238327
-0.0312909
0.0301609
-0.0463208
0.0175497
0.000600664
-0.000383975
-0.000216689
-0.0226888
0.0257291
-0.00304024
-0.0313804
0.0160175
0.0153629
-0.0319106
0.0105395
0.00531221
-0.00808307
0.00277086
0.000567643
-0.000614374
4.67313e-05
0.0474457
0.00540071
-0.0528464
0.002795
-0.00181612
-0.000978882
-0.00346097
-0.00792897
-0.0502077
0.04658
-0.00177273
-0.0448072
0.0579083
-0.0452542
-0.0126541
-0.0563537
-0.0133983
0.069752
-0.0317019
0.00701619
-0.00251106
0.00096586
0.0015452
-0.000795874
-0.0119595
0.0127554
0.0311332
0.00974477
0.00254232
-0.00493051
0.00238819
-0.022948
0.0122136
0.0107344
0.0227705
-0.000392689
-0.0223778
0.016547
-0.0100229
-0.00652409
0.0114959
0.0308014
-0.0422974
-0.0121978
-0.0116239
0.0433166
0.00294577
-0.0462624
0.00547204
-0.034275
0.0288029
-0.0251794
-0.0505325
-0.0170939
0.00553113
0.0356393
0.0238764
0.0206889
-0.0445652
0.0311282
0.0326573
-0.0130766
0.00911773
0.0493903
-0.00383305
0.0320993
-0.00846178
-0.0186866
0.00330754
0.00219367
0.00975488
-0.0119485
-0.0104195
-0.0497935
0.060213
-0.0605507
0.0605507
-0.00781493
0.0438845
-0.0132025
0.0394016
-0.026199
0.0307626
-0.0416606
0.010898
0.00649955
0.0428907
-0.0140509
0.00962755
0.00442334
0.0435947
-0.0190023
0.0624189
-0.0222511
0.0242486
-0.0582169
0.00140567
-0.0413261
-0.00166718
0.00669136
-0.0225988
0.00372031
0.0188785
0.000765423
0.0038187
-0.00458412
0.0216245
0.0149578
-0.0678978
-0.00990922
0.019862
0.00664314
-0.0265052
-0.03622
0.0222656
0.00363971
0.00711644
0.00049213
0.00257138
0.0434132
-0.00899156
0.0206713
-0.0236363
0.00296503
-0.00560598
0.00937222
-0.0469781
0.0289016
0.038804
0.00113467
-0.0399387
-0.00102334
-0.030226
0.0337817
-0.0302703
0.010709
0.0406558
-0.0299903
0.0113613
0.018629
-0.000302362
-0.00189309
0.00219545
-0.0240875
0.0192621
0.0312808
-0.0123182
-0.0189626
-0.0105673
0.048399
0.0422956
-0.0299262
-0.0194571
-0.0320357
0.0514929
-0.00104898
-0.00252034
0.00356932
0.00312
0.0147569
-0.0178769
-0.0356572
0.0396082
-0.00395105
0.0158493
-0.0181741
0.00232487
0.010668
0.0367777
0.00836454
0.0127515
-0.000639044
0.00845034
-0.00781129
-0.0206208
0.0336657
0.0348843
-0.0130022
-0.0218821
-0.00634315
-0.0503073
-0.00253001
0.00302214
0.0240359
-0.00491762
-0.0189963
-0.0669729
0.0512326
0.0157402
0.0177719
-0.023843
-0.0582704
0.0262532
0.0320171
-0.0506297
-0.0135191
0.0230383
0.069561
-0.0403156
-0.0292453
-0.0293672
-0.0349456
-0.0346223
0.0240243
0.0105979
-0.00986677
0.0190471
0.0111644
-0.00312239
-0.00804206
-0.0699275
0.0343197
0.0356077
0.0238161
-0.0319376
-0.0613783
0.0424586
0.0479394
-0.0233164
-0.024623
0.0108327
0.00257242
-0.0134051
0.000866389
-0.0174979
0.0166315
-0.0305411
0.00238455
-0.01062
-0.0122882
0.0514371
-0.039149
-0.0117218
0.0363242
-0.0246024
0.0115702
0.0463438
0.0647611
-0.0276019
0.0267233
0.0226667
-0.0493899
0.0290621
-0.0317321
0.00740776
0.000213793
0.025971
-0.0676363
-0.0110852
-0.00562077
0.0228502
-0.021482
-0.0265105
0.0113008
0.0152097
0.0551163
-0.0302266
-0.0248897
0.00546931
0.00558391
0.0318471
-0.0593741
0.027527
-0.04788
0.0283639
0.0195161
-0.0103793
0.000901424
0.00947789
-0.0239791
0.00537084
0.0186082
0.0448373
-0.0423398
0.029491
0.0057635
-0.0352545
-0.017537
-0.00721706
-0.00869251
0.000209391
0.0001708
-0.000380191
0.00905181
-0.0525563
0.0192002
0.0427252
0.00921872
-0.0122341
0.00140922
0.0175273
0.0785462
-0.036935
0.0269057
-0.0490677
0.000471212
-0.000170613
-0.0003006
-0.0346967
-0.00902304
0.0227852
-0.0315703
0.0431891
-0.0193731
-0.00346141
0.0021126
0.0328103
-0.0753097
0.023314
-0.0259595
0.00264547
-0.0258239
0.0119926
-0.0173731
0.0412495
0.00128063
0.042036
0.0488957
0.0061203
0.00527212
-0.0211909
0.0108278
0.0384182
-0.00821656
-0.0302016
-0.0578273
0.0701914
-0.0240696
0.0469872
0.0113961
0.0130342
-0.0244304
-0.0241098
0.00567186
-2.90338e-05
-0.000870474
0.000899508
0.00420314
-0.00140962
-0.00279352
-0.00365855
-0.0193729
0.0230315
0.00470561
-0.00696248
0.00225687
-0.00601269
0.01662
-0.0106073
-0.0203177
0.0117153
0.00860241
0.000426664
0.000712133
-0.0011388
-0.00143887
0.00331617
-0.0191168
0.0509639
0.0637388
-0.0455263
-0.0182125
0.00668112
0.00442146
-0.0111026
0.0397587
-0.0284573
0.0120205
-0.0153233
0.0033028
-0.0245923
0.0299994
-0.0126692
0.0367087
0.00995175
0.0117539
-0.0217056
-0.0260153
-0.00243223
0.0284475
-0.0118766
-0.00870637
-0.00110386
-0.0387876
0.0398915
0.00414709
-0.00915546
0.00500836
0.00787696
-0.0294972
0.0216202
0.00129266
-0.00287154
0.00157888
0.0211603
0.0147965
-0.0359568
-0.0244383
0.0463263
-0.0299713
-0.016355
-0.00402634
0.00186606
-0.0297495
0.0476295
-0.01788
0.00570431
-0.0179021
0.033442
-0.000963177
-0.0324788
0.000336654
0.00581998
-0.00615663
0.0758524
-0.0358733
-0.039979
0.00713205
-0.0018127
-0.00531935
0.0337034
-0.0136554
-0.020048
-0.0410662
-0.0260208
0.0234185
0.0240204
0.0232265
-0.046966
0.0193776
-0.0068985
0.0648179
-0.0147702
0.0340772
-0.019307
-0.037674
0.0390797
-0.0117188
0.00590514
0.00581364
-0.00551798
0.00711911
0.0437774
0.031834
-0.0268447
-0.0294316
0.0562762
-0.0163472
-0.0100779
-0.0451734
0.0387693
0.00640402
0.0619063
-0.0496672
-0.012239
0.0482971
0.00586465
-0.0541618
-0.0139088
0.0225652
-0.00865647
0.00165936
-0.0145482
0.0128889
-0.0106295
0.00659557
-0.0234561
0.0522686
-0.0397121
-0.0249231
-0.0153923
-0.0250529
-0.0126211
0.0506178
0.0115612
-0.0430244
-0.00558883
0.0486133
-0.0242343
-0.00562028
0.012798
-0.0216274
-0.0363483
0.0494176
-0.0130692
-0.00618213
-0.00353973
0.00972186
-0.0613325
0.010914
0.0504185
-0.00341329
0.00147393
0.00193935
-0.0220357
0.0160873
0.00594842
0.00198301
-0.00248052
0.000497515
-0.0265474
-0.00566806
0.0322154
0.0334948
-0.0371952
0.00370038
0.015263
-0.0404424
0.0249645
0.00238984
-0.0273544
0.00168771
0.0107581
-0.0124458
0.00606455
-0.013681
0.00761646
0.0355705
-0.0410957
-0.0271413
0.00851174
0.0186295
-0.00797809
0.00517099
0.0028071
-0.0603101
0.0216941
0.0386161
-0.0181886
-0.0125925
0.0307811
0.0273885
-0.0391103
-0.000898906
-0.00161215
-0.055678
-0.00366577
0.0033634
0.0555212
-0.0481818
-0.0204357
0.0444561
-0.00455403
-0.00342406
0.0383973
0.0311637
-0.00103237
-0.00238091
-0.000980851
-0.00523561
0.00621646
0.0151855
-0.011893
-0.00329248
0.0234042
-0.0224392
-0.000965029
0.0326402
0.00106321
0.0401567
-0.00117979
-0.038977
0.00106005
0.00758637
-0.00864642
-0.0141086
0.01648
-0.00237147
-0.0258847
0.0229887
0.00289599
0.0285597
-0.0206827
-0.0315905
-0.0306763
0.0203975
-0.0152196
-0.00517788
-0.0319944
0.0267235
-0.0101726
0.0110027
-0.000830115
0.0499408
-0.0396543
-0.0102866
0.055678
0.0104923
-0.0661702
0.0556769
0.0110306
0.00196585
-0.0129964
0.0320709
-0.0650376
0.0329667
0.0166196
-0.0314089
-0.0277043
-0.00944016
0.00443351
0.00411435
-0.00854786
-0.0363883
0.0455701
-0.00918171
-0.0290256
0.0155065
-0.00440084
-0.0354787
-0.00576513
-0.0305832
-0.00273477
0.0376928
-0.034958
-0.0486401
0.0122518
0.0157268
-0.0278569
0.0121302
0.00094768
-0.00334383
-0.0275781
0.0583407
-0.0160333
0.00220912
0.0138242
-0.0141569
0.0700626
-0.0274905
0.0274905
-0.00520899
0.023528
-0.018319
0.00243458
-0.00309577
0.0416191
0.00428942
-0.0459085
1.95079e-05
-0.0559441
0.00105868
0.000237803
-0.0504629
0.045843
-0.0416327
-0.0100353
0.0410836
0.0150852
-0.037504
0.0495964
-0.0120924
-0.0337929
-0.00946502
0.00307563
0.0365326
-0.00472579
0.00796156
-0.00323577
-0.0103031
-0.0323453
0.0426484
0.00480423
0.00602845
0.00300933
0.00206836
-0.0050777
0.0576061
-0.0457399
-0.0118662
0.00687649
-0.00549724
-0.00137925
-0.0522382
0.00246485
0.00246313
0.0278934
-0.0150688
-0.0128245
0.0263325
0.0164297
-0.0370178
0.0370178
-0.016179
-0.00999049
-0.0057551
0.0395954
-0.0338403
-0.024348
-0.0027933
0.00622222
0.00467329
-0.0108955
-0.0162306
-0.0067174
0.0187708
0.00912258
-0.0585639
0.0246382
0.0339257
0.00718565
-0.0401229
0.039498
0.0390481
-0.029556
0.00924354
0.0203125
0.0200471
0.0258178
0.000974167
0.0337495
-0.0160165
0.0343244
-0.0467721
0.0124478
-0.00174459
0.0464166
-0.0446721
-0.0119518
-0.00609785
0.0180496
0.0392265
-0.0385548
-0.00067173
0.0402249
-0.0429597
0.0175955
-0.0159362
0.00852893
-0.0188823
-0.000897447
0.00795112
-0.0547764
0.040138
0.0146384
0.000620693
-0.000799828
-0.000883801
0.00449324
-0.0526052
-0.0391289
-0.00875111
-0.0183637
-0.0238051
0.0421688
-0.00652779
0.0187283
-0.0122005
-0.0228944
-0.00340997
0.0489636
0.0341968
-0.0561389
0.0219421
0.0300028
-0.0403059
0.0381432
-0.0304722
-0.00767097
0.028333
0.0611023
-0.00961202
-0.0514903
-0.039964
0.0217754
0.00217805
-0.00283644
0.000658392
0.0127443
-0.00630113
-0.00644322
-0.00930951
0.0174821
0.0208564
-0.03922
0.0141506
0.026242
0.0200843
-0.0143236
0.00831094
-0.00560859
0.0208512
-0.029284
-0.00253362
0.0318176
-0.0346499
0.0586447
0.0702512
0.0469535
0.00373603
-0.0506896
0.0517002
-0.0290334
0.00200755
-0.00325224
-0.0502283
0.0159005
0.0533837
-0.0436087
0.0174161
-0.0164274
-0.00971819
-0.0280941
0.0378123
0.0571902
-0.0203142
-0.0476101
0.0338024
0.0138077
0.0161307
-0.0215177
-0.00571691
-0.0086423
0.0143592
-0.00784603
0.0042109
0.00363513
-0.015215
0.0165687
-0.00135375
0.0114517
-0.043445
0.00531221
0.00835997
0.0287447
-0.0371046
0.050555
-0.0670633
0.0165083
0.0437076
-0.0218679
-0.0218398
-0.00200045
0.0186013
-0.0100724
-0.0128527
0.00236814
0.0104845
0.00072542
-0.00109441
0.000368992
0.0412909
-0.0288043
0.00857395
-0.00666647
-0.00190748
-0.00702858
-0.0566351
0.0636637
0.0272108
0.010871
-0.0380818
-0.0375032
-0.00117774
0.0386809
0.0367171
0.00647203
0.00778959
-0.0052853
0.0152371
-0.0193641
0.0151308
0.00423331
0.00982378
0.00292056
0.0235585
-0.00136718
0.012512
-0.0126129
-0.0462876
0.0170915
0.0599883
0.0187456
-0.0186537
0.0234529
-0.0047992
0.0257917
0.0255837
-0.0196572
0.0473979
0.0413285
-0.05606
0.0147315
-0.0194595
-0.0196142
0.0390737
0.0028365
-0.000853498
-0.0368105
0.0429155
-0.00610499
0.00432862
0.0243357