/*--------------------------------*- C++ -*----------------------------------*\
| =========                 |                                                 |
| \\      /  F ield         | OpenFOAM: The Open Source CFD Toolbox           |
|  \\    /   O peration     | Version:  4.0                                   |
|   \\  /    A nd           | Web:      www.OpenFOAM.org                      |
|    \\/     M anipulation  |                                                 |
\*---------------------------------------------------------------------------*/
FoamFile
{
    version     2.0;
    format      ascii;
    class       volVectorField;
    location    "600";
    object      U;
}
// * * * * * * * * * * * * * * * * * * * * * * * * * * * * * * * * * * * * * //

dimensions      [0 1 -1 0 0 0 0];

internalField   nonuniform List<vector> 
14558
(
(22.6699 0.385221 1.05877e-20)
(21.8358 -0.20417 0)
(22.6834 0.40302 -6.74208e-21)
(21.8303 -0.220077 -1.72036e-22)
(21.0066 0.778048 -1.82028e-20)
(21.756 0.137738 -1.38308e-20)
(22.4393 0.891334 -1.50379e-20)
(21.8772 -2.88903 0)
(18.4092 -2.70074 0)
(21.9281 -2.33415 -7.24235e-21)
(23.677 -0.894886 -1.03917e-20)
(21.9197 -2.15969 0)
(21.758 0.2111 -3.14487e-20)
(21.2918 0.557535 -1.3709e-20)
(20.1129 -0.105848 -3.83242e-21)
(25.6138 -2.52819 -6.72372e-19)
(25.0714 -0.0214789 0)
(22.1204 0.057742 2.38611e-20)
(20.0399 -0.106967 1.86461e-21)
(10.2423 -1.95552 2.81832e-20)
(22.0437 -0.4619 4.50689e-20)
(18.3116 -1.5971 7.81287e-20)
(22.0088 0.135485 3.70523e-20)
(22.041 -0.462175 0)
(23.6713 -0.855165 0)
(21.9733 0.264889 -6.4085e-20)
(22.7387 -0.0207759 -1.50381e-22)
(25.127 -0.0260965 2.55003e-19)
(21.9493 -2.19441 0)
(15.544 -1.28228 2.64194e-20)
(17.9178 0.0403227 6.44559e-21)
(22.5542 0.106348 -6.54721e-20)
(21.0619 0.785941 -3.20522e-20)
(21.7727 -0.351451 1.58927e-20)
(22.8161 -0.679959 2.78979e-20)
(22.7866 -0.616615 0)
(22.0131 0.135654 -9.5132e-20)
(21.9386 -2.85395 0)
(22.3737 -1.10599 -6.99336e-21)
(20.7239 -0.263935 0)
(22.6923 -0.0157741 1.38371e-22)
(14.9828 -1.19621 0)
(22.7245 -0.136536 -9.42725e-20)
(21.3047 -0.0770079 -7.12666e-21)
(21.7726 0.13147 2.64089e-20)
(21.7514 0.17492 -4.74801e-20)
(21.9743 0.247526 1.5564e-20)
(21.2907 -2.35487 -1.67956e-20)
(17.6793 0.244491 2.46687e-20)
(18.3902 -1.5732 -1.85946e-20)
(22.5674 0.115804 1.51529e-20)
(17.9007 -0.236744 0)
(17.9109 0.714699 0)
(22.7297 -0.633797 0)
(17.9604 0.239502 -7.01687e-21)
(22.4304 -1.06203 1.28195e-20)
(21.3607 -0.341644 1.26099e-20)
(22.4966 0.895706 -3.86449e-21)
(22.5633 -0.46573 8.37986e-21)
(19.7361 -2.01958 4.68481e-20)
(22.8621 -0.0482505 -2.93846e-20)
(22.056 0.814903 0)
(21.4998 -0.017095 8.41116e-22)
(21.9629 -2.31247 -1.41184e-20)
(22.7773 -0.124358 3.05908e-20)
(21.7503 -0.475455 -5.76753e-21)
(21.7511 0.225004 3.69231e-21)
(19.6512 -1.9904 -3.92972e-20)
(20.4125 0.291853 -6.39661e-20)
(21.7369 -0.33002 2.18072e-20)
(20.3778 0.274482 4.3032e-20)
(22.483 -0.216601 8.79456e-20)
(22.1191 0.124044 0)
(21.7801 -0.442302 0)
(21.3253 0.933737 4.36095e-19)
(22.9372 -0.456123 -4.47846e-20)
(16.71 0.437045 -1.6057e-20)
(21.7483 0.160538 0)
(22.5275 -0.445828 -2.89588e-24)
(19.6449 -2.58192 -5.24519e-21)
(25.6316 -2.39613 7.07406e-19)
(22.8693 -0.66814 1.78998e-20)
(21.6366 -0.278702 -2.06416e-20)
(20.9759 -0.248911 0)
(19.3671 -0.551781 -3.44585e-20)
(21.7806 -0.323874 -4.61323e-20)
(21.731 -1.14997 -1.27272e-21)
(17.9358 -0.252887 4.00715e-20)
(22.1703 -0.435777 0)
(22.118 0.11047 2.58153e-20)
(26.003 -2.36928 0)
(19.5951 0.249389 1.68041e-20)
(21.335 -0.341247 0)
(22.1247 0.0410087 2.43795e-20)
(21.9299 -0.310078 1.25701e-20)
(16.3185 0.759357 -2.34057e-20)
(21.6216 -0.73309 -4.41361e-20)
(22.0197 0.183625 8.31647e-20)
(21.8379 0.15415 -4.71383e-20)
(21.5143 -1.23126 -3.56401e-20)
(24.2269 0.259053 1.73835e-19)
(22.1288 -1.16749 -4.53349e-21)
(21.1309 0.11498 3.33311e-20)
(25.2633 5.7286 0)
(22.5288 0.0204775 -4.5683e-20)
(21.5548 0.236761 0)
(24.0929 0.248236 -2.69758e-19)
(20.5958 -0.0831006 4.41017e-20)
(20.9479 0.689246 -5.1804e-20)
(21.8856 0.113678 0)
(20.7588 -0.0546997 -1.08854e-20)
(22.4352 -1.00262 0)
(21.9712 0.0846905 -1.06108e-19)
(21.9245 0.157202 -7.93139e-20)
(22.1332 -1.22435 0)
(21.5375 -1.01728 0)
(21.9777 -0.640559 8.08461e-21)
(22.4801 -0.231908 0)
(13.486 -1.50995 -5.13945e-20)
(21.505 -2.21206 7.14614e-21)
(26.3053 -0.0406457 -2.89646e-19)
(22.4165 -1.82949 0)
(21.5858 0.337194 0)
(21.5371 -0.00937173 -1.72705e-21)
(29.1358 0.233198 -3.41891e-19)
(22.7114 -0.28773 0)
(22.6842 -0.20573 -2.5421e-20)
(20.1446 -2.57191 -2.91751e-20)
(23.4259 -1.58173 0)
(21.6962 0.459335 2.91489e-20)
(23.1192 0.105366 5.81858e-20)
(20.1622 -0.244257 1.22383e-19)
(19.937 -0.203731 6.22814e-21)
(20.9911 0.639801 7.47237e-20)
(21.9434 0.0821383 -9.25276e-20)
(8.55771 -0.882604 -3.4066e-20)
(23.6898 0.72485 3.75984e-20)
(22.2349 -0.0478981 4.01714e-20)
(22.0208 -1.22672 0)
(23.0562 -0.199945 -5.72835e-20)
(24.3842 1.9747 2.93112e-19)
(22.5106 0.201295 -4.44342e-20)
(21.3763 -2.35138 -2.37203e-21)
(21.7595 -0.291451 -2.3615e-20)
(22.6825 -0.229814 2.98435e-20)
(22.8495 2.86534 -3.18831e-20)
(21.9022 -0.802033 -1.88374e-20)
(19.3715 0.548546 1.51894e-20)
(21.2929 -0.654854 -1.66071e-20)
(21.5777 0.212437 1.88552e-20)
(22.2954 0.418685 0)
(21.421 0.264964 -5.98594e-20)
(22.053 -0.0363475 0)
(21.8018 0.135166 -2.35061e-20)
(17.2018 0.42491 -1.7935e-20)
(21.9096 0.176842 -1.95485e-20)
(22.3954 -2.23269 5.06316e-20)
(13.2091 -2.5843 0)
(21.9666 -0.0210576 0)
(23.2514 -0.242052 2.7192e-21)
(22.3646 -0.0106122 6.40169e-21)
(22.6171 -0.43095 0)
(22.9466 -0.0245878 -1.38332e-19)
(21.9566 -0.785173 0)
(22.6544 -1.37631 -2.30465e-20)
(18.2728 0.544479 1.3351e-20)
(22.0624 0.0621122 -2.73917e-19)
(21.3324 -0.0790304 1.65238e-21)
(21.0418 1.82665 -1.8421e-20)
(21.6434 -0.800062 3.84608e-20)
(22.0002 0.0143627 0)
(21.6113 -2.42424 -1.01937e-20)
(20.9649 0.0243642 -3.53326e-20)
(12.4304 1.25418 -3.59805e-21)
(17.3734 -2.61369 0)
(18.8071 -1.27564 -2.88719e-20)
(22.734 -0.325389 -2.27987e-20)
(19.4328 0.358854 0)
(21.5535 0.531525 3.76562e-20)
(22.7962 -0.154039 3.88416e-20)
(22.6449 2.93665 0)
(21.8426 0.331954 2.16046e-20)
(22.4202 -3.95952 -2.48233e-21)
(20.7906 -1.91253 0)
(20.3813 0.798641 3.0409e-20)
(12.3652 0.510623 -5.68092e-20)
(19.4499 -0.601217 -1.1954e-20)
(22.5087 -0.114312 2.89582e-20)
(14.0031 -2.06762 2.96775e-20)
(22.0412 0.269393 -1.36007e-20)
(7.36408 -0.99543 -4.94011e-20)
(22.4633 0.561178 -1.66706e-20)
(16.2766 -0.82977 5.48256e-20)
(21.7637 0.236988 -2.92214e-20)
(14.8002 -0.480783 -1.18499e-19)
(21.0109 -0.114302 0)
(18.1763 0.0771123 2.05512e-20)
(20.8389 0.698128 0)
(17.6151 -2.70221 0)
(19.4465 0.592226 9.5123e-21)
(21.3967 -0.0128196 7.12745e-21)
(21.9585 0.0300305 4.98082e-20)
(19.2691 1.19796 -2.3352e-20)
(22.2554 0.439392 -2.90904e-20)
(22.8865 -0.377688 -2.30515e-20)
(19.6195 0.839549 0)
(21.7744 -0.16656 -3.26665e-20)
(22.5868 -0.757843 -2.15545e-20)
(22.4582 0.0140634 0)
(22.8086 -2.4473 1.01524e-20)
(23.9513 -1.71447 2.32411e-19)
(21.9222 0.0418984 0)
(21.9177 0.080386 0)
(21.8 -0.662025 3.80254e-20)
(22.5066 0.969545 0)
(21.8195 0.046622 2.74494e-20)
(22.5268 2.86472 8.01413e-21)
(19.8319 0.105811 -7.85521e-21)
(7.30438 -1.09107 3.97396e-20)
(16.723 -2.69937 3.60932e-20)
(21.8988 -0.202382 0)
(22.8669 -0.927985 1.06711e-20)
(23.4457 -1.50246 0)
(22.5567 0.0288162 -1.30966e-19)
(21.7397 -0.0976549 6.71003e-20)
(22.8611 0.0937268 1.16312e-19)
(22.1079 0.838281 -3.06698e-20)
(18.6387 0.171452 -1.37588e-20)
(16.183 -0.0155851 0)
(21.9775 0.0704007 7.27547e-20)
(21.9089 -0.00226773 -3.29905e-20)
(22.1668 0.223413 2.16691e-20)
(22.5868 -0.229738 3.49831e-20)
(24.1031 -2.39192 3.82691e-19)
(22.5144 -0.204172 2.9615e-20)
(21.3432 0.108417 -2.13453e-20)
(22.2902 -1.70097 0)
(17.6747 0.275054 -2.54246e-20)
(22.6516 0.231552 2.37293e-20)
(27.1819 -2.13066 -3.21272e-19)
(19.981 -0.197345 0)
(22.1685 0.303391 -4.17492e-20)
(22.2608 -2.09517 0)
(14.3366 -1.09346 -6.0008e-20)
(21.7417 -1.16678 0)
(21.4726 -1.04432 0)
(22.052 0.280202 -4.93021e-20)
(24.6317 0.166456 -2.29373e-19)
(21.7725 -0.103432 -4.7995e-21)
(21.0288 9.70108 -1.62668e-20)
(19.3366 0.601569 5.0987e-21)
(21.8486 0.158034 2.38988e-20)
(21.9592 0.0251333 0)
(22.382 0.365958 2.36628e-20)
(13.2575 -0.866938 -1.01237e-19)
(21.3637 0.392797 2.48415e-20)
(21.0273 1.96605 0)
(22.3362 -0.514694 -3.05896e-19)
(21.8913 0.123119 4.43345e-20)
(21.9955 0.0339929 -6.24342e-20)
(21.9963 0.0363542 6.82544e-20)
(22.0267 -0.31009 -5.45273e-20)
(24.5882 0.20311 4.27241e-19)
(22.5317 0.28435 -7.49632e-21)
(21.4893 -0.489951 3.32236e-21)
(22.7462 -1.37352 -7.94771e-19)
(23.3831 -0.0611175 -2.04207e-20)
(20.0493 -0.191139 0)
(14.0676 -1.37682 2.15268e-20)
(21.4051 -1.22292 0)
(23.6153 0.799523 -2.52269e-19)
(21.9581 -0.11533 -1.13906e-19)
(21.4988 0.411074 3.82547e-21)
(16.5995 -3.5432 0)
(21.9463 0.1122 0)
(21.608 -3.55774 9.28746e-21)
(19.6715 -1.5941 4.95363e-20)
(20.2916 -2.51664 -3.35316e-20)
(19.7466 -0.0742331 0)
(15.665 5.94385 5.58074e-19)
(21.5597 0.569893 0)
(23.0722 0.858808 -1.31651e-19)
(21.849 0.310398 -6.48529e-21)
(21.1743 -1.96282 3.54887e-20)
(23.1456 0.79918 1.38054e-19)
(23.6822 0.773849 5.64995e-20)
(22.6686 -1.5391 -2.17714e-20)
(20.4015 -5.06703 -5.01213e-21)
(22.4068 0.182205 1.31471e-20)
(20.481 -0.253082 7.74e-20)
(22.623 -1.48524 5.99846e-21)
(21.9612 0.0722488 -7.07199e-20)
(20.6985 -0.0780572 -6.26773e-21)
(20.6952 -1.89124 6.09673e-21)
(16.6189 0.780093 4.28651e-20)
(22.5335 -0.244899 5.65148e-20)
(20.6941 -2.04834 1.26709e-20)
(24.7087 0.145452 0)
(21.7264 -0.621303 -2.47854e-20)
(20.563 -0.0666983 5.76816e-21)
(20.0398 0.400883 0)
(20.3196 -0.252377 -9.50637e-20)
(21.1449 0.510508 -2.8093e-20)
(20.1174 0.833193 -8.0862e-20)
(22.144 0.393773 2.07455e-20)
(23.5695 4.11794 -1.80731e-19)
(20.2632 -0.1366 -1.03883e-19)
(21.9172 0.073857 9.33679e-20)
(21.1755 -0.844727 0)
(24.9405 0.215097 7.28564e-20)
(22.6675 -0.0136604 0)
(24.7235 -1.13741 6.45273e-19)
(23.4409 0.464804 -2.03104e-19)
(22.0137 0.102153 9.57501e-20)
(18.4965 -0.0534567 0)
(22.0848 -1.32345 0)
(22.0447 0.0888873 0)
(22.1471 0.604101 4.69745e-20)
(20.874 -0.286633 -3.66554e-20)
(21.9926 0.022373 -2.39899e-19)
(16.058 0.795974 2.98461e-20)
(20.6119 -0.439254 -3.9046e-21)
(21.3508 0.0876953 2.15103e-20)
(6.63086 -1.60551 0)
(22.9906 0.0649685 0)
(24.6369 3.79545 0)
(22.7337 -0.268827 0)
(19.7586 0.637282 -3.63196e-20)
(22.0241 0.0174104 7.79959e-20)
(24.6176 -0.418548 3.15752e-19)
(22.0176 0.114441 -8.80114e-20)
(19.5797 -0.350286 0)
(5.12357 -1.12058 7.23765e-21)
(24.6598 -0.512977 0)
(23.5997 0.00249796 -2.52736e-20)
(21.9746 -0.605632 4.72807e-22)
(23.1175 -0.323879 -1.50704e-22)
(23.0676 -0.0471536 0)
(23.1454 -4.14446 -6.02438e-20)
(21.8978 -1.4409 1.84725e-21)
(21.4758 0.472307 -2.98912e-22)
(22.422 0.51402 -1.23285e-21)
(20.8014 0.577005 0)
(21.9295 0.0372269 1.20656e-20)
(22.0122 -1.19839 0)
(18.7623 -1.01014 -8.28514e-20)
(21.8147 -0.399904 4.29811e-20)
(26.2487 -2.87403 6.66558e-19)
(22.6744 0.145341 1.91321e-22)
(19.5609 0.220265 -1.79648e-20)
(22.454 0.171794 2.19308e-20)
(20.6452 0.522918 -3.08416e-20)
(20.6003 0.295126 1.36519e-20)
(25.0633 0.198739 -4.795e-19)
(23.9117 -0.404598 0)
(21.8833 -0.398809 0)
(24.7362 1.91096 -2.40222e-19)
(22.7517 0.10706 -1.55062e-20)
(23.4046 -0.092928 1.68489e-19)
(21.3232 0.219066 5.93674e-21)
(21.9623 0.0669072 -9.92045e-21)
(13.0887 -0.76186 1.37763e-19)
(22.0055 0.0559193 5.54348e-20)
(22.5905 -0.665626 5.6018e-21)
(16.1457 -2.63193 0)
(21.9971 0.0367978 6.18708e-20)
(22.5873 -0.516704 2.05016e-20)
(21.9377 -0.271946 -8.64447e-21)
(18.9884 0.189933 6.69401e-20)
(23.6478 0.285267 8.88937e-20)
(22.4406 -0.710233 -3.6384e-21)
(22.0456 0.2629 2.44309e-20)
(22.0512 0.254332 0)
(22.1673 0.221756 -4.55642e-20)
(25.2614 5.47623 0)
(22.0299 -0.220417 0)
(22.2162 0.0371557 -7.03462e-21)
(21.7039 -0.074051 0)
(23.7683 -1.48166 2.39502e-19)
(22.7249 -0.00904029 -3.99878e-20)
(21.7938 -0.447642 2.13539e-20)
(22.3983 0.378112 -2.45082e-20)
(21.3837 -0.974511 3.56967e-20)
(21.964 0.0127784 1.82989e-19)
(21.9656 0.0920929 2.07196e-22)
(21.9209 -1.86802 -4.13091e-21)
(22.7088 0.386533 -4.89834e-21)
(22.2814 0.159716 1.8986e-20)
(17.0273 -2.75679 -3.02596e-20)
(25.7705 -2.33091 0)
(20.4063 0.870804 0)
(22.7 -0.560405 7.53492e-20)
(22.0222 0.0768649 5.31467e-20)
(15.5319 -0.0685806 3.93078e-20)
(21.9837 -0.423825 -7.21227e-20)
(22.2419 -0.0612331 0)
(22.4291 0.449718 -1.13213e-21)
(19.5951 -0.0906377 -2.07466e-19)
(29.2042 4.27927 8.50851e-19)
(21.574 0.0630128 -4.59759e-20)
(21.1315 -2.95289 3.04647e-20)
(20.69 -2.59441 0)
(21.919 0.170667 7.33805e-20)
(21.8544 -0.017991 -1.44283e-20)
(22.4818 -0.27153 7.2784e-21)
(12.5473 -3.046 -1.54779e-20)
(23.7526 -0.407575 0)
(22.47 0.0130381 -4.46657e-22)
(24.9743 -0.322423 0)
(27.0124 0.46273 -8.6782e-19)
(21.5685 0.364909 -2.06931e-20)
(18.8543 -0.0428446 0)
(21.6369 -0.184033 0)
(21.9947 0.022285 6.11487e-20)
(22.3222 0.28261 -3.09273e-20)
(29.0525 -0.107145 3.4012e-19)
(21.3497 -0.374903 6.28814e-20)
(21.6911 0.339414 1.47464e-20)
(22.0135 0.0826788 4.99474e-20)
(25.2333 4.16431 -3.6793e-19)
(19.8425 -0.250957 6.75816e-21)
(21.2787 0.082831 0)
(19.8249 -3.50202 0)
(22.1622 0.466331 0)
(21.6317 -0.169838 0)
(22.491 0.205692 0)
(16.4277 3.68602 -2.25885e-20)
(22.8165 -0.325279 2.35004e-20)
(23.138 0.278505 -7.14391e-20)
(23.7939 0.00797626 0)
(20.166 1.18612 7.93295e-21)
(22.726 0.0748993 -5.21985e-21)
(21.9529 0.491639 -6.00279e-20)
(19.0577 0.664929 3.09554e-21)
(22.5937 -0.717763 3.31989e-20)
(21.8214 0.037402 -2.78696e-20)
(21.4275 -0.541617 1.08702e-19)
(21.9128 -0.234236 2.37857e-21)
(22.2776 1.55054 2.41018e-21)
(24.2304 1.8895 -1.92272e-19)
(24.4084 -1.37082 -7.45458e-20)
(21.5793 0.0154456 4.24154e-20)
(16.5845 -1.12509 -1.88837e-20)
(23.0919 0.272281 1.18287e-19)
(23.7338 0.182523 0)
(22.2596 1.63307 0)
(22.052 0.029614 -1.63705e-19)
(21.7019 0.725815 -1.53784e-20)
(22.0343 0.0308406 -7.70253e-20)
(21.647 -0.280272 -4.14408e-20)
(26.6561 -1.41991 -5.0245e-19)
(18.7419 -1.21357 -1.31096e-20)
(20.3102 -0.191239 5.92173e-21)
(22.0359 0.0749163 -1.18678e-20)
(23.3405 4.01158 0)
(22.1751 -0.973271 4.34046e-22)
(20.4594 -0.174426 -1.54021e-20)
(21.7162 0.326776 1.68712e-20)
(23.4031 0.0153289 0)
(21.8972 -0.20029 7.43845e-20)
(22.5308 -0.11543 -1.9753e-19)
(22.3574 0.00578504 -3.2241e-22)
(22.3508 0.132765 1.91333e-20)
(22.9753 0.210113 2.42677e-20)
(22.2012 -0.434191 -5.50606e-21)
(9.34891 -1.37856 2.82489e-20)
(20.7269 -0.00842714 -2.2321e-20)
(18.338 -2.76402 -3.18392e-20)
(22.0621 0.328861 2.56998e-20)
(15.4811 -0.544892 7.07836e-20)
(25.3225 -1.13294 0)
(21.5405 -1.96049 -1.98604e-20)
(22.5302 0.300617 -4.07152e-21)
(22.4599 -0.571663 0)
(21.7864 -0.465187 4.83344e-20)
(22.0082 0.0919195 0)
(22.3705 -0.310049 8.41103e-22)
(21.412 0.394788 -4.79336e-20)
(21.9983 0.0568585 -7.44552e-20)
(21.1143 -0.417641 -1.48068e-20)
(23.8243 0.164427 0)
(22.7863 0.0998484 1.00353e-20)
(22.1421 -0.445821 0)
(19.982 -2.66735 0)
(16.7589 -1.17524 -1.96048e-20)
(23.1452 0.112819 7.04093e-20)
(10.116 0.39194 0)
(12.8302 -2.03821 -7.7182e-21)
(22.504 -0.242257 -7.20035e-21)
(22.1804 0.440717 0)
(14.4488 -2.12816 0)
(21.0138 0.915795 -1.01922e-19)
(26.0271 0.406265 -7.37241e-19)
(21.7787 -0.409496 -4.66728e-20)
(20.2372 1.03818 0)
(21.1933 0.469213 3.67208e-20)
(22.1761 -0.337056 -5.79075e-20)
(21.334 0.562171 -2.34491e-20)
(22.7287 0.0448077 -3.45036e-21)
(21.5841 0.148836 2.00904e-20)
(18.2729 0.00195749 0)
(21.7644 -0.875931 2.56446e-20)
(21.6212 0.240585 1.77876e-20)
(22.5707 -0.223235 -2.05176e-20)
(22.9403 -0.171498 7.41886e-20)
(21.5322 -2.17568 0)
(22.365 -0.145017 -9.19595e-21)
(22.047 0.309076 0)
(20.9384 -0.0873375 1.59022e-19)
(24.8538 -0.214298 7.18225e-20)
(22.9125 0.010194 -7.56295e-21)
(22.2693 -0.353721 0)
(23.7597 0.0114183 -1.81752e-19)
(22.9076 -0.307342 -2.33714e-20)
(21.7484 0.156672 4.07001e-21)
(22.6064 -0.720794 -6.85965e-21)
(22.0023 -0.0178753 -2.58688e-20)
(21.8352 -0.30769 3.71294e-20)
(20.6215 -2.63552 4.33138e-20)
(22.3379 -0.158144 7.73245e-20)
(21.9953 0.0211701 0)
(23.7952 -0.747189 0)
(22.542 -4.24701 0)
(22.8156 -0.382311 -7.41469e-21)
(17.7501 0.496183 -2.2595e-20)
(21.7005 0.484766 5.71899e-20)
(18.8433 -0.392171 0)
(21.2856 0.173315 -4.54113e-20)
(22.6691 -0.00640485 0)
(18.1571 -0.932475 5.30967e-20)
(21.6066 -0.0765178 -2.21663e-20)
(25.4022 3.872 4.44105e-19)
(22.7033 0.102664 5.59566e-21)
(22.8962 -0.44213 2.64987e-20)
(26.1268 -0.0757496 7.41409e-19)
(21.2693 -1.2557 0)
(21.761 -0.70465 2.50975e-20)
(21.8756 0.850756 2.54543e-21)
(21.6549 -2.31201 -3.96178e-20)
(6.97687 -0.817497 -6.18028e-21)
(21.0125 0.127524 -1.74289e-20)
(17.2415 0.29339 6.55443e-19)
(25.2846 -0.0274914 2.91779e-19)
(22.7833 0.0568594 -7.55837e-23)
(19.7194 0.0803235 1.75198e-20)
(21.1931 -2.18032 6.50358e-20)
(21.2492 0.0715578 0)
(21.9164 0.0507045 0)
(19.7257 -2.62607 0)
(21.9022 0.139166 -4.17554e-20)
(21.2565 -0.335242 0)
(21.2414 -2.41579 1.46017e-20)
(21.7957 0.827389 1.43278e-19)
(22.9267 -0.872468 0)
(26.8712 0.581433 7.45859e-19)
(24.5921 -0.513747 0)
(20.1663 2.23721 3.8941e-20)
(22.8674 0.0121404 2.09811e-21)
(18.7396 0.367966 2.50376e-20)
(22.0528 0.166694 -1.11559e-19)
(24.8415 -0.451898 0)
(20.0409 -0.0857502 5.32558e-21)
(21.3334 0.151267 -2.48824e-20)
(21.2992 -0.584112 9.94889e-20)
(21.8147 -0.615489 1.66104e-20)
(23.2814 0.0875269 -1.30675e-19)
(22.7404 -0.057312 2.92164e-20)
(21.9008 3.44094 0)
(24.0188 -1.78901 -3.08409e-19)
(20.2268 2.12225 0)
(22.0002 0.0104955 -3.20477e-20)
(16.182 -0.852355 -2.80869e-20)
(22.5701 -0.0625365 -4.48224e-20)
(21.8998 -0.293203 -3.27928e-20)
(24.7578 -0.417165 -2.35333e-19)
(17.8372 2.69253 -1.06595e-20)
(26.4027 -1.39067 8.53806e-22)
(21.9462 1.08018 -2.32001e-20)
(24.335 0.612535 1.40697e-20)
(24.8465 0.0571134 0)
(21.8819 -0.364242 0)
(22.0533 0.724307 2.98086e-20)
(20.6186 8.9584 0)
(22.4755 0.487175 8.28184e-21)
(22.0905 0.0535145 9.01255e-20)
(21.9104 0.881579 1.8592e-20)
(23.3642 -0.00689039 -2.22949e-20)
(23.9119 0.23246 0)
(21.8276 -0.453102 4.45115e-20)
(21.9648 0.011543 -5.64486e-20)
(21.6167 -0.319749 -2.32973e-20)
(22.485 -1.50002 1.82417e-20)
(21.9751 0.78457 0)
(23.0195 -0.411044 -1.05167e-19)
(22.183 0.695394 0)
(24.3309 1.14537 -1.37023e-20)
(22.784 -0.144878 -1.14846e-19)
(22.7332 0.141073 -2.17033e-21)
(22.2679 0.373231 1.78308e-20)
(21.7407 -0.857919 -1.68861e-20)
(16.0067 -0.108128 0)
(14.6225 -1.03759 -9.25371e-20)
(27.669 2.57269 -1.76573e-18)
(21.3353 0.172436 2.46157e-20)
(24.9162 0.122002 -3.09096e-19)
(21.8433 -1.34035 0)
(22.0365 1.0892 -1.12439e-19)
(21.9692 0.0684428 -5.12137e-21)
(23.0512 -0.110259 0)
(21.9531 0.0253187 -4.71173e-20)
(22.0657 -1.29236 -5.94723e-23)
(19.9147 0.483558 -1.67475e-20)
(22.3408 -0.422386 -6.88923e-20)
(22.5177 -0.3878 -3.22615e-21)
(22.5964 -0.104897 5.77465e-20)
(21.3318 0.526083 -8.60859e-20)
(20.2233 -0.179781 6.02961e-21)
(22.4974 -0.0474074 1.36097e-19)
(21.8374 -0.305942 -3.92671e-20)
(17.8097 -0.885271 6.64141e-21)
(22.6795 0.33157 1.02413e-20)
(15.8841 -2.60159 0)
(21.6055 0.154628 -9.48609e-22)
(21.9504 0.785596 -5.55271e-20)
(21.9745 -0.279677 -6.26092e-20)
(20.0071 -0.12584 1.95206e-21)
(24.5988 1.83084 2.87327e-19)
(25.2031 -1.2484 4.5321e-19)
(23.2407 0.0138135 -2.05747e-20)
(8.22457 -0.787402 -3.41102e-20)
(21.0519 -0.0561274 -5.28887e-21)
(22.9354 -1.06125 -2.96505e-20)
(21.5367 -0.45855 2.4788e-20)
(22.1814 -0.616491 -5.50969e-20)
(20.2327 -0.102057 0)
(22.087 -3.98395 -2.59857e-20)
(22 0.00883141 0)
(22.1355 0.63804 -5.19473e-20)
(14.3467 -0.96296 2.75647e-20)
(25.2869 -0.0452586 0)
(13.0297 -2.07502 -4.54111e-21)
(23.4852 0.120012 -4.37298e-20)
(22.8877 0.0352713 0)
(18.0994 0.545099 0)
(21.9802 -0.0244123 1.57101e-20)
(22.2742 0.350313 -8.74045e-21)
(22.6956 -1.32684 4.44621e-20)
(24.5917 0.569959 1.17978e-19)
(21.9688 0.0731113 8.31929e-20)
(24.6699 -0.497368 0)
(21.374 0.500084 -1.71953e-20)
(21.573 -1.76136 2.36324e-20)
(22.322 -0.37587 0)
(22.3748 1.0158 -3.35971e-21)
(17.4171 -2.1493 -5.09774e-20)
(21.2182 -0.336086 0)
(11.4173 -2.73673 -6.91026e-20)
(22.4651 -0.0814516 -3.94257e-20)
(20.0321 0.183278 0)
(20.7961 -1.77921 0)
(22.0259 -0.0882747 0)
(20.5463 0.0919361 -5.93462e-20)
(7.03993 -0.97271 -4.04588e-20)
(21.8297 0.124196 0)
(24.5225 0.588088 -1.63405e-19)
(22.4897 0.420559 -4.12603e-21)
(24.3595 0.453534 2.55155e-19)
(21.9973 0.047401 5.58855e-20)
(16.5701 -0.938725 -4.31525e-22)
(19.8738 -0.0343728 0)
(22.0324 -0.404659 0)
(21.4915 0.271315 0)
(24.6741 -2.99191 0)
(21.951 0.741185 9.29227e-20)
(20.0242 -0.20604 7.66509e-21)
(29.4183 -0.224532 6.9222e-19)
(22.4554 -0.972118 0)
(23.255 0.159286 0)
(22.4973 -0.20329 0)
(18.2069 -0.0318272 2.16511e-20)
(19.9252 -0.195908 5.11448e-21)
(21.7428 -3.60203 -9.1199e-21)
(19.462 0.403077 -1.31943e-22)
(21.9798 -0.108944 7.85433e-20)
(21.7032 0.668966 8.39196e-20)
(7.76602 0.557535 9.36451e-20)
(21.925 0.607816 0)
(21.6564 -0.53032 0)
(22.4113 -0.77649 -2.68131e-20)
(11.1694 -2.52135 -5.97578e-20)
(6.91445 -1.26954 -4.10513e-20)
(24.5942 -1.81871 -3.37515e-19)
(5.24594 3.83666 1.2084e-19)
(21.1817 0.532086 5.56185e-20)
(14.2198 -0.103963 0)
(25.9731 0.760196 -2.43146e-19)
(22.528 0.0315434 3.13558e-20)
(22.0069 0.154967 0)
(21.6227 0.177545 -1.97387e-20)
(15.0156 -2.34738 -2.17582e-20)
(21.1749 -1.13488 -1.4647e-21)
(22.8773 -1.04606 1.02103e-19)
(11.9645 1.03158 0)
(20.405 1.29462 0)
(21.1699 -0.102878 2.12637e-21)
(21.5465 0.564868 0)
(22.5332 0.675079 0)
(20.6762 -0.471371 0)
(24.167 -0.846072 -2.3949e-19)
(22.527 -0.65002 0)
(22.0054 0.0335334 3.59046e-20)
(21.7559 -0.622597 0)
(22.5189 0.0175716 0)
(22.7888 0.854019 0)
(21.8719 -0.171166 5.08455e-19)
(21.6036 0.153927 -3.82911e-20)
(22.0292 -0.110037 0)
(22.1311 -0.952983 -1.81248e-22)
(21.8684 -1.35814 0)
(18.6918 6.89983 0)
(24.676 0.0575505 4.28981e-19)
(15.0402 0.042603 2.58232e-20)
(21.9529 0.0226098 1.264e-19)
(20.1191 -0.150381 -2.39611e-21)
(22.2418 0.0686218 -1.26573e-21)
(22.0539 -0.113059 3.53047e-20)
(21.6822 -2.72168 -3.64694e-20)
(26.8085 -2.05738 -3.74433e-19)
(20.0555 -0.0889476 0)
(22.1547 0.367828 0)
(28.7711 4.64055 -1.70144e-18)
(20.8705 0.00793003 4.31906e-20)
(22.5291 -1.40923 -1.89007e-20)
(20.8587 0.138059 0)
(22.2572 -0.613347 -4.95402e-20)
(24.0375 0.133869 1.10135e-19)
(21.3447 2.51625 0)
(21.7695 -0.318954 -7.78368e-20)
(19.6386 -1.54533 2.22722e-20)
(18.6496 0.330893 -1.32054e-20)
(22.6193 -0.610998 -3.39565e-21)
(21.941 -0.802555 -1.64199e-20)
(20.7797 -0.0820074 4.12302e-21)
(26.2521 -1.20426 0)
(25.6775 0.665255 4.27154e-19)
(22.1781 0.485069 -3.81042e-20)
(21.9185 -0.00389579 0)
(24.4108 0.393965 -1.2298e-19)
(22.8859 -3.00534 8.60591e-20)
(16.1327 -2.43644 2.3844e-20)
(21.9647 0.749766 0)
(22.74 6.34687 2.95241e-20)
(22.6995 0.0269625 0)
(22.1065 0.0305784 -5.78522e-19)
(23.5592 -0.053389 0)
(20.0046 0.570746 -1.86986e-20)
(20.1659 -0.511044 -8.32531e-20)
(23.2852 -1.49749 1.49553e-19)
(19.2818 1.09552 -1.09974e-19)
(24.4551 -1.80009 6.81483e-19)
(20.4825 0.00858847 -2.4899e-21)
(21.4768 0.299132 4.52859e-21)
(23.7592 -1.42161 1.22818e-19)
(22.0824 0.0748612 -2.57583e-20)
(23.5019 0.053778 5.95368e-20)
(18.3867 0.299083 -4.01415e-20)
(21.2691 -0.376785 0)
(21.819 -0.682051 -3.27152e-20)
(22.0343 0.11363 2.0311e-21)
(20.4754 -0.202043 4.99117e-21)
(22.0684 -1.23538 0)
(22.2682 0.0474014 2.38609e-19)
(13.8528 -0.00972438 0)
(20.9686 -0.159328 -6.7144e-20)
(22.8607 -0.0978424 2.87657e-20)
(23.1574 0.104293 1.10265e-21)
(22.2048 0.387989 1.94706e-20)
(21.727 -0.0721993 0)
(17.7865 -3.53015 -3.9591e-20)
(21.9627 0.0511653 1.87052e-20)
(22.1436 -0.658571 0)
(21.9965 0.044193 -1.18368e-19)
(21.7332 -0.0435353 0)
(20.6145 -3.10544 -6.03747e-20)
(22.3597 -2.08742 -6.44089e-21)
(25.4033 -0.0295448 -3.50078e-19)
(16.2512 3.22955 1.92892e-19)
(22.9153 -0.122889 -4.36146e-20)
(22.2225 0.839456 0)
(22.2436 0.0468915 1.09995e-21)
(22.6989 -0.0416828 0)
(22.6608 -0.355054 2.09379e-20)
(22.1903 -0.44665 0)
(21.1379 0.45192 -3.92457e-22)
(21.9684 0.0555307 -3.85839e-20)
(21.7155 -3.7246 -6.41902e-22)
(21.5895 0.0432139 -2.16401e-20)
(22.357 -1.5579 -1.14471e-20)
(22.6888 -0.160072 -1.37077e-20)
(21.2816 0.0628057 -2.39746e-20)
(22.4977 0.0772276 -1.07748e-21)
(23.6359 -1.29252 4.48171e-20)
(21.4551 0.232203 -4.39643e-21)
(21.6386 -0.392696 -7.76523e-20)
(23.3075 0.107033 -2.94769e-19)
(25.3413 -1.9412 0)
(22.4451 -2.28104 1.80444e-20)
(21.4898 0.295729 -4.35009e-21)
(4.7887 -1.16371 -2.50791e-22)
(23.3901 -1.46382 0)
(15.3069 0.136849 7.52321e-20)
(24.8088 -0.275052 2.76648e-19)
(19.9861 -5.61652 -1.78788e-19)
(19.8432 -0.256813 -6.51175e-21)
(22.7947 -0.0215978 0)
(23.5169 0.408851 0)
(5.12409 -0.951399 1.13011e-20)
(24.2485 -2.28925 -2.8477e-19)
(21.8283 0.13385 -2.71805e-20)
(22.1652 -0.712215 0)
(18.8478 0.678475 -2.42639e-20)
(22.0067 0.0792699 0)
(22.6901 -3.36669 -6.98108e-20)
(20.1104 -0.221964 1.66792e-20)
(22.6628 0.806424 -2.94533e-21)
(24.089 -0.905709 0)
(22.5102 -0.388567 -2.75192e-20)
(21.2878 0.516659 0)
(22.5458 -1.47392 4.56916e-20)
(21.7955 -0.394724 6.80526e-20)
(22.8971 -0.706073 1.41248e-20)
(19.7877 0.0669462 0)
(22.1783 -0.375076 3.08702e-20)
(22.0326 -0.330204 0)
(21.8685 -0.00502115 0)
(6.12678 -1.66748 -1.08814e-19)
(12.6273 -1.12395 1.23302e-19)
(21.7238 -0.316814 1.20853e-19)
(15.8028 -1.14931 0)
(21.9686 -2.52227 0)
(21.6525 0.0262556 -1.63551e-20)
(9.08496 -1.23019 0)
(14.027 -1.56939 7.03447e-20)
(22.5429 0.0741996 -2.1073e-21)
(22.5341 -0.0255077 1.2433e-21)
(21.1624 -1.30101 -3.47326e-21)
(20.7031 -0.19197 1.45125e-20)
(21.7983 -2.01117 0)
(21.7352 0.73947 -1.52635e-20)
(22.0845 0.736009 -2.93477e-20)
(21.6812 0.624356 7.68003e-20)
(22.2237 0.346391 0)
(15.6588 -3.73547 0)
(22.4212 -0.381689 -1.13113e-20)
(18.2882 -0.316672 0)
(25.9842 5.03849 0)
(6.30206 -1.715 -4.01568e-21)
(23.4795 -0.346601 0)
(21.3473 -0.546997 -3.48067e-20)
(22.1565 -0.184314 0)
(18.5903 0.0119123 0)
(21.995 -0.345595 6.77318e-20)
(20.882 -0.460401 -1.04524e-20)
(21.6864 -0.275549 0)
(12.0864 8.58116 -5.39396e-19)
(23.5102 -0.0957904 -2.61054e-20)
(21.1682 0.204274 -1.80164e-20)
(23.0557 0.745177 1.02089e-21)
(26.4229 -2.78671 -6.89698e-19)
(22.0053 -0.297455 6.08294e-20)
(21.9039 0.0530529 0)
(22.6974 -0.286731 1.51181e-20)
(22.0029 -0.024279 2.77521e-20)
(24.0759 -4.03118 -3.02696e-19)
(27.5208 3.97843 -1.28394e-18)
(21.401 0.340337 -9.72545e-21)
(21.1281 -2.40957 -1.73625e-20)
(23.2964 0.0164304 -5.01709e-21)
(25.3846 1.58865 -3.16728e-19)
(22.289 -2.14968 8.28958e-21)
(22.2056 1.32182 0)
(23.3445 -0.533503 0)
(21.9313 0.225103 -7.43144e-20)
(20.4828 0.434585 5.24283e-20)
(22.6536 -3.99584 0)
(20.5809 0.812902 1.27487e-19)
(22.9848 0.116599 -5.46995e-20)
(21.9766 0.0665032 -3.41162e-22)
(22.3061 1.00124 0)
(26.9199 4.37444 5.48391e-19)
(22.7683 0.0672468 0)
(22.1956 0.468622 0)
(21.8227 -0.291801 -8.02061e-20)
(21.9249 -0.191348 -4.12225e-20)
(22.6814 0.242558 -9.47967e-22)
(21.0534 -1.92935 3.78132e-20)
(23.5063 1.38785 4.79772e-20)
(15.7911 -2.22122 0)
(21.857 0.0893857 -2.21715e-20)
(15.485 -2.3313 7.74118e-22)
(22.5692 -2.16182 -2.77746e-20)
(23.6846 -4.37508 0)
(22.0118 0.0327538 2.32473e-20)
(21.5789 1.18328 -8.11225e-20)
(21.7123 -1.05151 0)
(21.8367 -2.52944 -2.8751e-20)
(21.9445 0.0751168 0)
(21.1732 -0.241154 1.07976e-22)
(18.9107 -0.241669 -4.14214e-20)
(24.2084 -0.595078 -4.11183e-19)
(21.865 0.0856 0)
(22.204 0.788699 8.78639e-20)
(14.9684 -2.3859 -1.51063e-20)
(20.3039 -0.345976 1.53676e-18)
(16.5706 -2.47746 1.68344e-20)
(22.5683 0.922865 0)
(21.8939 0.0609899 1.24709e-20)
(18.8426 -0.223511 -6.16175e-21)
(22.8531 -0.0849723 1.37554e-20)
(15.7488 -2.2638 1.04066e-20)
(14.8124 -0.854583 -2.17646e-20)
(21.6262 -1.66913 3.26916e-20)
(22.5999 8.65013 0)
(23.005 0.756978 5.74782e-20)
(22.4044 -0.213105 3.87786e-21)
(21.4488 0.284538 0)
(21.6493 0.678719 1.38952e-20)
(21.342 0.26118 -2.65792e-20)
(26.3123 5.25017 0)
(23.3297 0.169188 5.24368e-20)
(20.3098 -0.127499 -2.64485e-20)
(19.968 -0.131664 1.06845e-21)
(21.6503 -2.0302 -8.4576e-21)
(23.9391 -1.49236 5.65134e-20)
(22.0832 0.684465 1.37321e-19)
(24.3778 0.529308 2.2108e-19)
(20.3465 -0.619857 -9.10244e-21)
(21.9564 0.0905097 9.6573e-21)
(23.1632 -4.02748 -1.95516e-19)
(24.4168 3.85498 -3.50663e-20)
(19.9507 -0.312994 0)
(22.5207 0.180828 -1.02922e-19)
(21.0694 -0.167243 0)
(22.7887 -0.465465 1.30727e-21)
(22.7049 0.2544 9.28245e-22)
(23.0308 -0.96074 -3.25172e-21)
(22.5537 0.171178 9.92464e-20)
(17.8733 0.818061 -4.71681e-20)
(13.7496 -2.68418 4.66939e-20)
(22.3255 0.0637519 0)
(21.8861 0.329603 4.21488e-20)
(21.1602 -0.0374783 1.17006e-20)
(14.8806 -2.55142 0)
(21.8916 -0.453322 -3.45218e-20)
(18.9841 0.380134 0)
(23.282 -0.07561 1.0349e-19)
(24.8304 -0.110435 5.61963e-19)
(10.6116 0.328388 0)
(24.6209 -0.388364 8.35806e-19)
(24.5484 -1.29859 7.07149e-20)
(21.0591 -0.0486295 1.18275e-21)
(22.3091 -0.143844 -1.67673e-21)
(22.35 -0.338032 1.623e-21)
(23.2376 -1.44406 -1.51256e-19)
(20.6773 -1.67758 -1.21694e-20)
(22.0378 0.164193 -2.74817e-20)
(20.7213 -3.01301 -3.39961e-20)
(20.7531 0.329166 0)
(22.1849 -0.261701 2.79032e-20)
(17.8841 -0.253151 -4.72164e-20)
(24.3115 -0.571772 4.244e-19)
(19.9249 0.439896 3.28503e-20)
(21.7974 -0.104974 2.07982e-20)
(22.2932 -0.352778 -3.18775e-20)
(21.6907 4.38564 -1.54399e-18)
(19.908 -0.212246 -1.28794e-20)
(23.0358 -0.631166 -1.97459e-20)
(21.2181 -0.210745 3.53113e-20)
(21.4431 -1.27887 2.43651e-20)
(20.5013 1.1987 -8.03014e-20)
(21.8055 -0.117737 -2.11589e-20)
(23.2519 -0.206301 3.29104e-20)
(22.4395 0.0207587 7.75608e-22)
(22.7951 -0.00828299 1.26597e-20)
(22.6254 -0.661753 -2.22549e-20)
(22.4609 -0.542841 1.60962e-21)
(22.3786 -2.13878 -3.11355e-20)
(21.9439 -0.233425 7.64202e-20)
(21.867 0.227535 8.99369e-20)
(23.424 0.0186541 -6.27131e-20)
(20.0508 1.83694 3.92018e-20)
(22.4864 1.84309 -2.19269e-21)
(23.1012 -0.916411 -1.92942e-19)
(22.7587 -3.93642 0)
(20.3965 -0.171071 7.04053e-20)
(20.8049 -1.86901 0)
(21.9375 0.159816 -1.87723e-20)
(5.75136 -1.45457 6.63629e-20)
(13.7491 -1.32179 0)
(22.0257 0.0320289 0)
(23.6843 -1.30748 1.8852e-19)
(22.4809 0.816736 0)
(21.7427 0.0958361 5.44849e-20)